ITEM: TIMESTEP
0
ITEM: NUMBER OF ATOMS
5
ITEM: BOX BOUNDS xy xz yz pp pp pp
0.0000000000000000e+00 1.0289339721999999e+01 3.6749877000000000e-02
-5.6322168999999998e-02 1.0263123642000000e+01 1.3833062300000001e-01
0.0000000000000000e+00 1.0216793284000000e+01 -5.6322168999999998e-02
ITEM: ATOMS id type x y z
2 1 4.05859 4.94539 4.52744
1 1 5.45139 4.32697 3.56645
5 2 5.16284 4.77314 4.5439
3 1 5.61737 5.77213 4.64888
4 1 5.46957 4.13046 5.37415
ITEM: TIMESTEP
100
ITEM: NUMBER OF ATOMS
5
ITEM: BOX BOUNDS xy xz yz pp pp pp
0.0000000000000000e+00 1.0289339721999999e+01 3.6749877000000000e-02
-5.6322168999999998e-02 1.0263123642000000e+01 1.3833062300000001e-01
0.0000000000000000e+00 1.0216793284000000e+01 -5.6322168999999998e-02
ITEM: ATOMS id type x y z
2 1 4.44834 5.51133 4.12291
1 1 5.36029 4.0282 3.76394
5 2 5.16784 4.77934 4.54057
3 1 6.06589 5.29558 4.88802
4 1 4.66239 4.26546 5.38198
ITEM: TIMESTEP
200
ITEM: NUMBER OF ATOMS
5
ITEM: BOX BOUNDS xy xz yz pp pp pp
0.0000000000000000e+00 1.0289339721999999e+01 3.6749877000000000e-02
-5.6322168999999998e-02 1.0263123642000000e+01 1.3833062300000001e-01
0.0000000000000000e+00 1.0216793284000000e+01 -5.6322168999999998e-02
ITEM: ATOMS id type x y z
2 1 5.25543 5.66767 3.90937
1 1 5.10552 3.89304 3.91457
5 2 5.1641 4.78065 4.53636
3 1 5.98221 4.69212 5.25668
4 1 4.23863 4.83201 5.12677
ITEM: TIMESTEP
300
ITEM: NUMBER OF ATOMS
5
ITEM: BOX BOUNDS xy xz yz pp pp pp
0.0000000000000000e+00 1.0289339721999999e+01 3.6749877000000000e-02
-5.6322168999999998e-02 1.0263123642000000e+01 1.3833062300000001e-01
0.0000000000000000e+00 1.0216793284000000e+01 -5.6322168999999998e-02
ITEM: ATOMS id type x y z
2 1 6.03097 5.23405 4.07574
1 1 4.80268 3.94967 3.90632
5 2 5.15483 4.78258 4.53474
3 1 5.50044 4.39652 5.50516
4 1 4.35896 5.48141 4.73966
ITEM: TIMESTEP
400
ITEM: NUMBER OF ATOMS
5
ITEM: BOX BOUNDS xy xz yz pp pp pp
0.0000000000000000e+00 1.0289339721999999e+01 3.6749877000000000e-02
-5.6322168999999998e-02 1.0263123642000000e+01 1.3833062300000001e-01
0.0000000000000000e+00 1.0216793284000000e+01 -5.6322168999999998e-02
ITEM: ATOMS id type x y z
2 1 6.22181 4.54192 4.4496
1 1 4.65039 4.20735 3.78271
5 2 5.15152 4.78138 4.53974
3 1 4.8676 4.46465 5.54515
4 1 4.99293 5.86213 4.38933
ITEM: TIMESTEP
500
ITEM: NUMBER OF ATOMS
5
ITEM: BOX BOUNDS xy xz yz pp pp pp
0.0000000000000000e+00 1.0289339721999999e+01 3.6749877000000000e-02
-5.6322168999999998e-02 1.0263123642000000e+01 1.3833062300000001e-01
0.0000000000000000e+00 1.0216793284000000e+01 -5.6322168999999998e-02
ITEM: ATOMS id type x y z
2 1 5.85053 3.99313 4.82548
1 1 4.67364 4.47261 3.59041
5 2 5.15702 4.77942 4.54577
3 1 4.40234 4.95888 5.32781
4 1 5.7403 5.67497 4.35079
ITEM: TIMESTEP
600
ITEM: NUMBER OF ATOMS
5
ITEM: BOX BOUNDS xy xz yz pp pp pp
0.0000000000000000e+00 1.0289339721999999e+01 3.6749877000000000e-02
-5.6322168999999998e-02 1.0263123642000000e+01 1.3833062300000001e-01
0.0000000000000000e+00 1.0216793284000000e+01 -5.6322168999999998e-02
ITEM: ATOMS id type x y z
2 1 5.05263 3.82644 5.09292
1 1 4.89289 4.67375 3.49314
5 2 5.16131 4.771 4.5402
3 1 4.47615 5.51742 4.96888
4 1 6.19365 5.18305 4.60634
ITEM: TIMESTEP
700
ITEM: NUMBER OF ATOMS
5
ITEM: BOX BOUNDS xy xz yz pp pp pp
0.0000000000000000e+00 1.0289339721999999e+01 3.6749877000000000e-02
-5.6322168999999998e-02 1.0263123642000000e+01 1.3833062300000001e-01
0.0000000000000000e+00 1.0216793284000000e+01 -5.6322168999999998e-02
ITEM: ATOMS id type x y z
2 1 4.34495 4.21235 5.00416
1 1 5.18311 4.59747 3.44713
5 2 5.16786 4.77488 4.53759
3 1 4.89663 5.83695 4.72701
4 1 6.11194 4.50733 5.01431
ITEM: TIMESTEP
800
ITEM: NUMBER OF ATOMS
5
ITEM: BOX BOUNDS xy xz yz pp pp pp
0.0000000000000000e+00 1.0289339721999999e+01 3.6749877000000000e-02
-5.6322168999999998e-02 1.0263123642000000e+01 1.3833062300000001e-01
0.0000000000000000e+00 1.0216793284000000e+01 -5.6322168999999998e-02
ITEM: ATOMS id type x y z
2 1 4.06973 4.79683 4.68327
1 1 5.40141 4.3621 3.55347
5 2 5.16437 4.78368 4.53912
3 1 5.54466 5.80259 4.64285
4 1 5.56278 4.08695 5.29464
ITEM: TIMESTEP
900
ITEM: NUMBER OF ATOMS
5
ITEM: BOX BOUNDS xy xz yz pp pp pp
0.0000000000000000e+00 1.0289339721999999e+01 3.6749877000000000e-02
-5.6322168999999998e-02 1.0263123642000000e+01 1.3833062300000001e-01
0.0000000000000000e+00 1.0216793284000000e+01 -5.6322168999999998e-02
ITEM: ATOMS id type x y z
2 1 4.29009 5.39026 4.27004
1 1 5.43518 4.1375 3.70344
5 2 5.15681 4.78449 4.5449
3 1 6.03492 5.40012 4.76048
4 1 4.9091 4.11087 5.371
ITEM: TIMESTEP
1000
ITEM: NUMBER OF ATOMS
5
ITEM: BOX BOUNDS xy xz yz pp pp pp
0.0000000000000000e+00 1.0289339721999999e+01 3.6749877000000000e-02
-5.6322168999999998e-02 1.0263123642000000e+01 1.3833062300000001e-01
0.0000000000000000e+00 1.0216793284000000e+01 -5.6322168999999998e-02
ITEM: ATOMS id type x y z
1 1 5.28708 3.9864 3.82466
5 2 5.15618 4.77837 4.54197
3 1 6.11743 4.91767 5.03976
2 1 4.89041 5.71447 4.01077
4 1 4.38189 4.49359 5.2649
ITEM: TIMESTEP
1100
ITEM: NUMBER OF ATOMS
5
ITEM: BOX BOUNDS xy xz yz pp pp pp
0.0000000000000000e+00 1.0289339721999999e+01 3.6749877000000000e-02
-5.6322168999999998e-02 1.0263123642000000e+01 1.3833062300000001e-01
0.0000000000000000e+00 1.0216793284000000e+01 -5.6322168999999998e-02
ITEM: ATOMS id type x y z
1 1 5.05763 3.92283 3.84589
5 2 5.15479 4.77203 4.54118
3 1 5.88921 4.56498 5.33228
2 1 5.53123 5.63652 3.98735
4 1 4.21548 5.06388 4.98408
ITEM: TIMESTEP
1200
ITEM: NUMBER OF ATOMS
5
ITEM: BOX BOUNDS xy xz yz pp pp pp
0.0000000000000000e+00 1.0289339721999999e+01 3.6749877000000000e-02
-5.6322168999999998e-02 1.0263123642000000e+01 1.3833062300000001e-01
0.0000000000000000e+00 1.0216793284000000e+01 -5.6322168999999998e-02
ITEM: ATOMS id type x y z
1 1 4.82756 3.98067 3.84719
5 2 5.15963 4.77393 4.54082
3 1 5.44141 4.36858 5.50991
2 1 6.00651 5.29398 4.10327
4 1 4.35999 5.5222 4.69348
ITEM: TIMESTEP
1300
ITEM: NUMBER OF ATOMS
5
ITEM: BOX BOUNDS xy xz yz pp pp pp
0.0000000000000000e+00 1.0289339721999999e+01 3.6749877000000000e-02
-5.6322168999999998e-02 1.0263123642000000e+01 1.3833062300000001e-01
0.0000000000000000e+00 1.0216793284000000e+01 -5.6322168999999998e-02
ITEM: ATOMS id type x y z
1 1 4.68549 4.11186 3.78799
5 2 5.15982 4.7767 4.54004
3 1 4.96945 4.40297 5.57066
2 1 6.22148 4.81102 4.33818
4 1 4.75676 5.80639 4.46636
ITEM: TIMESTEP
1400
ITEM: NUMBER OF ATOMS
5
ITEM: BOX BOUNDS xy xz yz pp pp pp
0.0000000000000000e+00 1.0289339721999999e+01 3.6749877000000000e-02
-5.6322168999999998e-02 1.0263123642000000e+01 1.3833062300000001e-01
0.0000000000000000e+00 1.0216793284000000e+01 -5.6322168999999998e-02
ITEM: ATOMS id type x y z
1 1 4.61995 4.2861 3.70426
5 2 5.16047 4.77716 4.53892
3 1 4.59126 4.64587 5.47331
2 1 6.17359 4.3379 4.63295
4 1 5.24051 5.85686 4.36612
ITEM: TIMESTEP
1500
ITEM: NUMBER OF ATOMS
5
ITEM: BOX BOUNDS xy xz yz pp pp pp
0.0000000000000000e+00 1.0289339721999999e+01 3.6749877000000000e-02
-5.6322168999999998e-02 1.0263123642000000e+01 1.3833062300000001e-01
0.0000000000000000e+00 1.0216793284000000e+01 -5.6322168999999998e-02
ITEM: ATOMS id type x y z
1 1 4.67978 4.45426 3.62096
5 2 5.15825 4.77512 4.53622
3 1 4.39454 4.97492 5.31951
2 1 5.85026 3.99723 4.89065
4 1 5.72737 5.72483 4.37799
ITEM: TIMESTEP
1600
ITEM: NUMBER OF ATOMS
5
ITEM: BOX BOUNDS xy xz yz pp pp pp
0.0000000000000000e+00 1.0289339721999999e+01 3.6749877000000000e-02
-5.6322168999999998e-02 1.0263123642000000e+01 1.3833062300000001e-01
0.0000000000000000e+00 1.0216793284000000e+01 -5.6322168999999998e-02
ITEM: ATOMS id type x y z
1 1 4.79927 4.56463 3.51643
5 2 5.15693 4.77844 4.53696
3 1 4.40408 5.30598 5.11273
2 1 5.38955 3.84658 5.0629
4 1 6.07493 5.39416 4.50817
ITEM: TIMESTEP
1700
ITEM: NUMBER OF ATOMS
5
ITEM: BOX BOUNDS xy xz yz pp pp pp
0.0000000000000000e+00 1.0289339721999999e+01 3.6749877000000000e-02
-5.6322168999999998e-02 1.0263123642000000e+01 1.3833062300000001e-01
0.0000000000000000e+00 1.0216793284000000e+01 -5.6322168999999998e-02
ITEM: ATOMS id type x y z
1 1 4.9905 4.61863 3.4545
5 2 5.15704 4.77931 4.53882
3 1 4.56901 5.61608 4.90877
2 1 4.89422 3.87611 5.11748
4 1 6.21283 4.99015 4.69714
ITEM: TIMESTEP
1800
ITEM: NUMBER OF ATOMS
5
ITEM: BOX BOUNDS xy xz yz pp pp pp
0.0000000000000000e+00 1.0289339721999999e+01 3.6749877000000000e-02
-5.6322168999999998e-02 1.0263123642000000e+01 1.3833062300000001e-01
0.0000000000000000e+00 1.0216793284000000e+01 -5.6322168999999998e-02
ITEM: ATOMS id type x y z
1 1 5.19617 4.58528 3.46788
5 2 5.15316 4.77804 4.53397
3 1 4.88715 5.83038 4.76303
2 1 4.46303 4.11662 5.0553
4 1 6.16676 4.58382 4.94987
ITEM: TIMESTEP
1900
ITEM: NUMBER OF ATOMS
5
ITEM: BOX BOUNDS xy xz yz pp pp pp
0.0000000000000000e+00 1.0289339721999999e+01 3.6749877000000000e-02
-5.6322168999999998e-02 1.0263123642000000e+01 1.3833062300000001e-01
0.0000000000000000e+00 1.0216793284000000e+01 -5.6322168999999998e-02
ITEM: ATOMS id type x y z
1 1 5.34329 4.47298 3.49217
5 2 5.15953 4.77836 4.53706
3 1 5.28501 5.8721 4.66212
2 1 4.13865 4.50201 4.86858
4 1 5.86971 4.26524 5.17608
ITEM: TIMESTEP
2000
ITEM: NUMBER OF ATOMS
5
ITEM: BOX BOUNDS xy xz yz pp pp pp
0.0000000000000000e+00 1.0289339721999999e+01 3.6749877000000000e-02
-5.6322168999999998e-02 1.0263123642000000e+01 1.3833062300000001e-01
0.0000000000000000e+00 1.0216793284000000e+01 -5.6322168999999998e-02
ITEM: ATOMS id type x y z
2 1 4.08679 4.98477 4.59459
1 1 5.43508 4.31708 3.58514
5 2 5.15832 4.77883 4.53561
3 1 5.70535 5.71496 4.67349
4 1 5.42398 4.0898 5.36318
ITEM: TIMESTEP
2100
ITEM: NUMBER OF ATOMS
5
ITEM: BOX BOUNDS xy xz yz pp pp pp
0.0000000000000000e+00 1.0289339721999999e+01 3.6749877000000000e-02
-5.6322168999999998e-02 1.0263123642000000e+01 1.3833062300000001e-01
0.0000000000000000e+00 1.0216793284000000e+01 -5.6322168999999998e-02
ITEM: ATOMS id type x y z
2 1 4.32125 5.43771 4.28793
1 1 5.42939 4.11982 3.71016
5 2 5.15826 4.78146 4.53372
3 1 6.02297 5.35624 4.82449
4 1 4.87826 4.16137 5.41646
ITEM: TIMESTEP
2200
ITEM: NUMBER OF ATOMS
5
ITEM: BOX BOUNDS xy xz yz pp pp pp
0.0000000000000000e+00 1.0289339721999999e+01 3.6749877000000000e-02
-5.6322168999999998e-02 1.0263123642000000e+01 1.3833062300000001e-01
0.0000000000000000e+00 1.0216793284000000e+01 -5.6322168999999998e-02
ITEM: ATOMS id type x y z
2 1 4.85946 5.67461 4.01257
1 1 5.25117 3.97669 3.80287
5 2 5.1635 4.77979 4.54421
3 1 6.12459 4.91663 5.06009
4 1 4.35374 4.52718 5.23763
ITEM: TIMESTEP
2300
ITEM: NUMBER OF ATOMS
5
ITEM: BOX BOUNDS xy xz yz pp pp pp
0.0000000000000000e+00 1.0289339721999999e+01 3.6749877000000000e-02
-5.6322168999999998e-02 1.0263123642000000e+01 1.3833062300000001e-01
0.0000000000000000e+00 1.0216793284000000e+01 -5.6322168999999998e-02
ITEM: ATOMS id type x y z
2 1 5.61975 5.58702 3.96238
1 1 5.01439 3.91577 3.88148
5 2 5.15663 4.77954 4.54158
3 1 5.8314 4.47582 5.36129
4 1 4.20589 5.11954 4.93962
ITEM: TIMESTEP
2400
ITEM: NUMBER OF ATOMS
5
ITEM: BOX BOUNDS xy xz yz pp pp pp
0.0000000000000000e+00 1.0289339721999999e+01 3.6749877000000000e-02
-5.6322168999999998e-02 1.0263123642000000e+01 1.3833062300000001e-01
0.0000000000000000e+00 1.0216793284000000e+01 -5.6322168999999998e-02
ITEM: ATOMS id type x y z
2 1 6.18361 5.03215 4.23939
1 1 4.71337 4.02812 3.85908
5 2 5.16014 4.77645 4.53502
3 1 5.19559 4.36964 5.53423
4 1 4.53674 5.70527 4.59082
ITEM: TIMESTEP
2500
ITEM: NUMBER OF ATOMS
5
ITEM: BOX BOUNDS xy xz yz pp pp pp
0.0000000000000000e+00 1.0289339721999999e+01 3.6749877000000000e-02
-5.6322168999999998e-02 1.0263123642000000e+01 1.3833062300000001e-01
0.0000000000000000e+00 1.0216793284000000e+01 -5.6322168999999998e-02
ITEM: ATOMS id type x y z
2 1 6.13846 4.25708 4.64972
1 1 4.63197 4.36336 3.68972
5 2 5.1602 4.77379 4.54287
3 1 4.54423 4.70497 5.44435
4 1 5.31392 5.84168 4.34544
ITEM: TIMESTEP
2600
ITEM: NUMBER OF ATOMS
5
ITEM: BOX BOUNDS xy xz yz pp pp pp
0.0000000000000000e+00 1.0289339721999999e+01 3.6749877000000000e-02
-5.6322168999999998e-02 1.0263123642000000e+01 1.3833062300000001e-01
0.0000000000000000e+00 1.0216793284000000e+01 -5.6322168999999998e-02
ITEM: ATOMS id type x y z
2 1 5.3521 3.82011 5.00803
1 1 4.8188 4.57602 3.51373
5 2 5.16142 4.77571 4.54382
3 1 4.38128 5.34527 5.09685
4 1 6.06182 5.40266 4.49923
ITEM: TIMESTEP
2700
ITEM: NUMBER OF ATOMS
5
ITEM: BOX BOUNDS xy xz yz pp pp pp
0.0000000000000000e+00 1.0289339721999999e+01 3.6749877000000000e-02
-5.6322168999999998e-02 1.0263123642000000e+01 1.3833062300000001e-01
0.0000000000000000e+00 1.0216793284000000e+01 -5.6322168999999998e-02
ITEM: ATOMS id type x y z
2 1 4.43227 4.0916 5.01457
1 1 5.18758 4.58168 3.46232
5 2 5.15718 4.78245 4.53848
3 1 4.88374 5.80368 4.73358
4 1 6.16127 4.58626 4.97154
ITEM: TIMESTEP
2800
ITEM: NUMBER OF ATOMS
5
ITEM: BOX BOUNDS xy xz yz pp pp pp
0.0000000000000000e+00 1.0289339721999999e+01 3.6749877000000000e-02
-5.6322168999999998e-02 1.0263123642000000e+01 1.3833062300000001e-01
0.0000000000000000e+00 1.0216793284000000e+01 -5.6322168999999998e-02
ITEM: ATOMS id type x y z
2 1 4.06957 4.93787 4.61314
1 1 5.44748 4.30634 3.59203
5 2 5.15833 4.77855 4.53351
3 1 5.67655 5.74504 4.6993
4 1 5.45738 4.12075 5.33716
ITEM: TIMESTEP
2900
ITEM: NUMBER OF ATOMS
5
ITEM: BOX BOUNDS xy xz yz pp pp pp
0.0000000000000000e+00 1.0289339721999999e+01 3.6749877000000000e-02
-5.6322168999999998e-02 1.0263123642000000e+01 1.3833062300000001e-01
0.0000000000000000e+00 1.0216793284000000e+01 -5.6322168999999998e-02
ITEM: ATOMS id type x y z
2 1 4.62864 5.62013 4.12533
1 1 5.33846 3.98596 3.80591
5 2 5.15828 4.78057 4.53318
3 1 6.11789 5.14839 4.97778
4 1 4.5666 4.3313 5.33651
ITEM: TIMESTEP
3000
ITEM: NUMBER OF ATOMS
5
ITEM: BOX BOUNDS xy xz yz pp pp pp
0.0000000000000000e+00 1.0289339721999999e+01 3.6749877000000000e-02
-5.6322168999999998e-02 1.0263123642000000e+01 1.3833062300000001e-01
0.0000000000000000e+00 1.0216793284000000e+01 -5.6322168999999998e-02
ITEM: ATOMS id type x y z
1 1 4.98678 3.91232 3.88656
4 1 4.16634 5.09403 4.93452
5 2 5.16201 4.77932 4.54708
2 1 5.61165 5.59022 3.93498
3 1 5.84212 4.50418 5.32264
ITEM: TIMESTEP
3100
ITEM: NUMBER OF ATOMS
5
ITEM: BOX BOUNDS xy xz yz pp pp pp
0.0000000000000000e+00 1.0289339721999999e+01 3.6749877000000000e-02
-5.6322168999999998e-02 1.0263123642000000e+01 1.3833062300000001e-01
0.0000000000000000e+00 1.0216793284000000e+01 -5.6322168999999998e-02
ITEM: ATOMS id type x y z
1 1 4.67835 4.09713 3.83916
4 1 4.64855 5.74091 4.47965
5 2 5.15749 4.78096 4.54465
2 1 6.22483 4.90363 4.25135
3 1 5.10933 4.33948 5.53774
ITEM: TIMESTEP
3200
ITEM: NUMBER OF ATOMS
5
ITEM: BOX BOUNDS xy xz yz pp pp pp
0.0000000000000000e+00 1.0289339721999999e+01 3.6749877000000000e-02
-5.6322168999999998e-02 1.0263123642000000e+01 1.3833062300000001e-01
0.0000000000000000e+00 1.0216793284000000e+01 -5.6322168999999998e-02
ITEM: ATOMS id type x y z
1 1 4.62062 4.40143 3.6616
4 1 5.53914 5.79801 4.37187
5 2 5.15682 4.77686 4.53388
2 1 6.01058 4.16644 4.77396
3 1 4.4988 4.76442 5.42969
ITEM: TIMESTEP
3300
ITEM: NUMBER OF ATOMS
5
ITEM: BOX BOUNDS xy xz yz pp pp pp
0.0000000000000000e+00 1.0289339721999999e+01 3.6749877000000000e-02
-5.6322168999999998e-02 1.0263123642000000e+01 1.3833062300000001e-01
0.0000000000000000e+00 1.0216793284000000e+01 -5.6322168999999998e-02
ITEM: ATOMS id type x y z
1 1 4.83219 4.62216 3.4883
4 1 6.13011 5.26294 4.59011
5 2 5.15947 4.77925 4.53642
2 1 5.2528 3.81652 5.08006
3 1 4.4222 5.40002 5.04819
ITEM: TIMESTEP
3400
ITEM: NUMBER OF ATOMS
5
ITEM: BOX BOUNDS xy xz yz pp pp pp
0.0000000000000000e+00 1.0289339721999999e+01 3.6749877000000000e-02
-5.6322168999999998e-02 1.0263123642000000e+01 1.3833062300000001e-01
0.0000000000000000e+00 1.0216793284000000e+01 -5.6322168999999998e-02
ITEM: ATOMS id type x y z
1 1 5.14201 4.62827 3.46058
4 1 6.14449 4.58354 4.98216
5 2 5.16718 4.77709 4.54055
2 1 4.39789 4.10911 5.00318
3 1 4.86043 5.80665 4.71125
ITEM: TIMESTEP
3500
ITEM: NUMBER OF ATOMS
5
ITEM: BOX BOUNDS xy xz yz pp pp pp
0.0000000000000000e+00 1.0289339721999999e+01 3.6749877000000000e-02
-5.6322168999999998e-02 1.0263123642000000e+01 1.3833062300000001e-01
0.0000000000000000e+00 1.0216793284000000e+01 -5.6322168999999998e-02
ITEM: ATOMS id type x y z
1 1 5.40729 4.40043 3.54176
4 1 5.61967 4.11633 5.30156
5 2 5.15809 4.78094 4.54247
2 1 4.07591 4.75396 4.65035
3 1 5.55109 5.8106 4.64046
ITEM: TIMESTEP
3600
ITEM: NUMBER OF ATOMS
5
ITEM: BOX BOUNDS xy xz yz pp pp pp
0.0000000000000000e+00 1.0289339721999999e+01 3.6749877000000000e-02
-5.6322168999999998e-02 1.0263123642000000e+01 1.3833062300000001e-01
0.0000000000000000e+00 1.0216793284000000e+01 -5.6322168999999998e-02
ITEM: ATOMS id type x y z
1 1 5.45075 4.14032 3.7026
4 1 4.91919 4.1551 5.3997
5 2 5.15503 4.77964 4.53816
2 1 4.28931 5.41274 4.26466
3 1 6.03137 5.38874 4.81884
ITEM: TIMESTEP
3700
ITEM: NUMBER OF ATOMS
5
ITEM: BOX BOUNDS xy xz yz pp pp pp
0.0000000000000000e+00 1.0289339721999999e+01 3.6749877000000000e-02
-5.6322168999999998e-02 1.0263123642000000e+01 1.3833062300000001e-01
0.0000000000000000e+00 1.0216793284000000e+01 -5.6322168999999998e-02
ITEM: ATOMS id type x y z
1 1 5.28539 3.96677 3.81439
4 1 4.35678 4.58097 5.274
5 2 5.15554 4.77384 4.53547
2 1 4.95699 5.70864 4.02091
3 1 6.08533 4.91019 5.10882
ITEM: TIMESTEP
3800
ITEM: NUMBER OF ATOMS
5
ITEM: BOX BOUNDS xy xz yz pp pp pp
0.0000000000000000e+00 1.0289339721999999e+01 3.6749877000000000e-02
-5.6322168999999998e-02 1.0263123642000000e+01 1.3833062300000001e-01
0.0000000000000000e+00 1.0216793284000000e+01 -5.6322168999999998e-02
ITEM: ATOMS id type x y z
1 1 4.99642 3.9176 3.87153
4 1 4.22037 5.15076 4.95496
5 2 5.16065 4.77224 4.53672
2 1 5.63117 5.59582 3.98541
3 1 5.7753 4.52159 5.39116
ITEM: TIMESTEP
3900
ITEM: NUMBER OF ATOMS
5
ITEM: BOX BOUNDS xy xz yz pp pp pp
0.0000000000000000e+00 1.0289339721999999e+01 3.6749877000000000e-02
-5.6322168999999998e-02 1.0263123642000000e+01 1.3833062300000001e-01
0.0000000000000000e+00 1.0216793284000000e+01 -5.6322168999999998e-02
ITEM: ATOMS id type x y z
1 1 4.7519 4.03421 3.85649
4 1 4.47854 5.61692 4.61023
5 2 5.16129 4.77362 4.53806
2 1 6.09818 5.15436 4.1669
3 1 5.28687 4.36364 5.55334
ITEM: TIMESTEP
4000
ITEM: NUMBER OF ATOMS
5
ITEM: BOX BOUNDS xy xz yz pp pp pp
0.0000000000000000e+00 1.0289339721999999e+01 3.6749877000000000e-02
-5.6322168999999998e-02 1.0263123642000000e+01 1.3833062300000001e-01
0.0000000000000000e+00 1.0216793284000000e+01 -5.6322168999999998e-02
ITEM: ATOMS id type x y z
1 1 4.60894 4.23986 3.76573
5 2 5.16128 4.77289 4.54202
2 1 6.24423 4.5859 4.47387
4 1 4.98112 5.84426 4.38905
3 1 4.78135 4.50798 5.51087
ITEM: TIMESTEP
4100
ITEM: NUMBER OF ATOMS
5
ITEM: BOX BOUNDS xy xz yz pp pp pp
0.0000000000000000e+00 1.0289339721999999e+01 3.6749877000000000e-02
-5.6322168999999998e-02 1.0263123642000000e+01 1.3833062300000001e-01
0.0000000000000000e+00 1.0216793284000000e+01 -5.6322168999999998e-02
ITEM: ATOMS id type x y z
1 1 4.64365 4.463 3.62648
5 2 5.16195 4.77316 4.54493
2 1 5.96887 4.09794 4.77649
4 1 5.56583 5.76961 4.3283
3 1 4.42926 4.84411 5.37333
ITEM: TIMESTEP
4200
ITEM: NUMBER OF ATOMS
5
ITEM: BOX BOUNDS xy xz yz pp pp pp
0.0000000000000000e+00 1.0289339721999999e+01 3.6749877000000000e-02
-5.6322168999999998e-02 1.0263123642000000e+01 1.3833062300000001e-01
0.0000000000000000e+00 1.0216793284000000e+01 -5.6322168999999998e-02
ITEM: ATOMS id type x y z
1 1 4.80072 4.60685 3.51964
5 2 5.15891 4.77804 4.54599
2 1 5.448 3.82494 5.00285
4 1 6.02498 5.44121 4.45873
3 1 4.37043 5.24311 5.1106
ITEM: TIMESTEP
4300
ITEM: NUMBER OF ATOMS
5
ITEM: BOX BOUNDS xy xz yz pp pp pp
0.0000000000000000e+00 1.0289339721999999e+01 3.6749877000000000e-02
-5.6322168999999998e-02 1.0263123642000000e+01 1.3833062300000001e-01
0.0000000000000000e+00 1.0216793284000000e+01 -5.6322168999999998e-02
ITEM: ATOMS id type x y z
1 1 5.02792 4.6477 3.46525
5 2 5.15909 4.77976 4.54505
2 1 4.85383 3.87182 5.05628
4 1 6.22251 4.97107 4.71092
3 1 4.53761 5.60496 4.8707
ITEM: TIMESTEP
4400
ITEM: NUMBER OF ATOMS
5
ITEM: BOX BOUNDS xy xz yz pp pp pp
0.0000000000000000e+00 1.0289339721999999e+01 3.6749877000000000e-02
-5.6322168999999998e-02 1.0263123642000000e+01 1.3833062300000001e-01
0.0000000000000000e+00 1.0216793284000000e+01 -5.6322168999999998e-02
ITEM: ATOMS id type x y z
1 1 5.24649 4.58308 3.46064
5 2 5.16175 4.77932 4.54528
2 1 4.36067 4.16187 4.9514
4 1 6.11357 4.5233 5.00061
3 1 4.88928 5.83255 4.68771
ITEM: TIMESTEP
4500
ITEM: NUMBER OF ATOMS
5
ITEM: BOX BOUNDS xy xz yz pp pp pp
0.0000000000000000e+00 1.0289339721999999e+01 3.6749877000000000e-02
-5.6322168999999998e-02 1.0263123642000000e+01 1.3833062300000001e-01
0.0000000000000000e+00 1.0216793284000000e+01 -5.6322168999999998e-02
ITEM: ATOMS id type x y z
1 1 5.39036 4.4346 3.52267
5 2 5.16419 4.77996 4.54352
2 1 4.0967 4.58813 4.72619
4 1 5.76154 4.20448 5.26098
3 1 5.33212 5.86595 4.61169
ITEM: TIMESTEP
4600
ITEM: NUMBER OF ATOMS
5
ITEM: BOX BOUNDS xy xz yz pp pp pp
0.0000000000000000e+00 1.0289339721999999e+01 3.6749877000000000e-02
-5.6322168999999998e-02 1.0263123642000000e+01 1.3833062300000001e-01
0.0000000000000000e+00 1.0216793284000000e+01 -5.6322168999999998e-02
ITEM: ATOMS id type x y z
1 1 5.45581 4.25669 3.63184
5 2 5.16467 4.7796 4.54114
2 1 4.09843 5.03647 4.45291
4 1 5.28062 4.10769 5.4025
3 1 5.7401 5.69654 4.66276
ITEM: TIMESTEP
4700
ITEM: NUMBER OF ATOMS
5
ITEM: BOX BOUNDS xy xz yz pp pp pp
0.0000000000000000e+00 1.0289339721999999e+01 3.6749877000000000e-02
-5.6322168999999998e-02 1.0263123642000000e+01 1.3833062300000001e-01
0.0000000000000000e+00 1.0216793284000000e+01 -5.6322168999999998e-02
ITEM: ATOMS id type x y z
1 1 5.42765 4.08599 3.74612
5 2 5.16388 4.77528 4.53812
2 1 4.33427 5.42064 4.19586
4 1 4.8047 4.23326 5.42861
3 1 6.01785 5.40934 4.81574
ITEM: TIMESTEP
4800
ITEM: NUMBER OF ATOMS
5
ITEM: BOX BOUNDS xy xz yz pp pp pp
0.0000000000000000e+00 1.0289339721999999e+01 3.6749877000000000e-02
-5.6322168999999998e-02 1.0263123642000000e+01 1.3833062300000001e-01
0.0000000000000000e+00 1.0216793284000000e+01 -5.6322168999999998e-02
ITEM: ATOMS id type x y z
1 1 5.30041 3.93393 3.86532
5 2 5.16153 4.77851 4.53344
2 1 4.75784 5.63823 4.00907
4 1 4.44067 4.49578 5.33633
3 1 6.11375 5.04256 5.03175
ITEM: TIMESTEP
4900
ITEM: NUMBER OF ATOMS
5
ITEM: BOX BOUNDS xy xz yz pp pp pp
0.0000000000000000e+00 1.0289339721999999e+01 3.6749877000000000e-02
-5.6322168999999998e-02 1.0263123642000000e+01 1.3833062300000001e-01
0.0000000000000000e+00 1.0216793284000000e+01 -5.6322168999999998e-02
ITEM: ATOMS id type x y z
1 1 5.11428 3.86789 3.92662
5 2 5.16046 4.77633 4.53329
2 1 5.27018 5.68305 3.91865
4 1 4.25415 4.88513 5.15839
3 1 5.98683 4.70057 5.24056
ITEM: TIMESTEP
5000
ITEM: NUMBER OF ATOMS
5
ITEM: BOX BOUNDS xy xz yz pp pp pp
0.0000000000000000e+00 1.0289339721999999e+01 3.6749877000000000e-02
-5.6322168999999998e-02 1.0263123642000000e+01 1.3833062300000001e-01
0.0000000000000000e+00 1.0216793284000000e+01 -5.6322168999999998e-02
ITEM: ATOMS id type x y z
1 1 4.88473 3.89612 3.92722
5 2 5.15931 4.77704 4.53514
4 1 4.27561 5.29212 4.90552
2 1 5.76167 5.48744 3.95795
3 1 5.71726 4.45247 5.43136
