ITEM: TIMESTEP
0
ITEM: NUMBER OF ATOMS
5
ITEM: BOX BOUNDS xy xz yz pp pp pp
0.0000000000000000e+00 1.0289339721999999e+01 3.6749877000000000e-02
-5.6322168999999998e-02 1.0263123642000000e+01 1.3833062300000001e-01
0.0000000000000000e+00 1.0216793284000000e+01 -5.6322168999999998e-02
ITEM: ATOMS id type x y z
2 1 4.05859 4.94539 4.52744
1 1 5.45139 4.32697 3.56645
5 2 5.16284 4.77314 4.5439
3 1 5.61737 5.77213 4.64888
4 1 5.46957 4.13046 5.37415
ITEM: TIMESTEP
100
ITEM: NUMBER OF ATOMS
5
ITEM: BOX BOUNDS xy xz yz pp pp pp
0.0000000000000000e+00 1.0289339721999999e+01 3.6749877000000000e-02
-5.6322168999999998e-02 1.0263123642000000e+01 1.3833062300000001e-01
0.0000000000000000e+00 1.0216793284000000e+01 -5.6322168999999998e-02
ITEM: ATOMS id type x y z
2 1 4.48826 5.53754 4.14421
1 1 5.42565 4.05362 3.75588
5 2 5.15642 4.77239 4.54125
3 1 6.08605 5.31302 4.82943
4 1 4.67405 4.27977 5.41921
ITEM: TIMESTEP
200
ITEM: NUMBER OF ATOMS
5
ITEM: BOX BOUNDS xy xz yz pp pp pp
0.0000000000000000e+00 1.0289339721999999e+01 3.6749877000000000e-02
-5.6322168999999998e-02 1.0263123642000000e+01 1.3833062300000001e-01
0.0000000000000000e+00 1.0216793284000000e+01 -5.6322168999999998e-02
ITEM: ATOMS id type x y z
2 1 5.28845 5.67903 3.90771
1 1 5.15413 3.90981 3.86027
5 2 5.15327 4.77234 4.54368
3 1 6.01987 4.72287 5.20952
4 1 4.24926 4.87279 5.14203
ITEM: TIMESTEP
300
ITEM: NUMBER OF ATOMS
5
ITEM: BOX BOUNDS xy xz yz pp pp pp
0.0000000000000000e+00 1.0289339721999999e+01 3.6749877000000000e-02
-5.6322168999999998e-02 1.0263123642000000e+01 1.3833062300000001e-01
0.0000000000000000e+00 1.0216793284000000e+01 -5.6322168999999998e-02
ITEM: ATOMS id type x y z
2 1 5.99981 5.28736 4.07758
1 1 4.80577 3.96622 3.88845
5 2 5.15349 4.77706 4.53967
3 1 5.55329 4.37601 5.47906
4 1 4.35031 5.49837 4.72264
ITEM: TIMESTEP
400
ITEM: NUMBER OF ATOMS
5
ITEM: BOX BOUNDS xy xz yz pp pp pp
0.0000000000000000e+00 1.0289339721999999e+01 3.6749877000000000e-02
-5.6322168999999998e-02 1.0263123642000000e+01 1.3833062300000001e-01
0.0000000000000000e+00 1.0216793284000000e+01 -5.6322168999999998e-02
ITEM: ATOMS id type x y z
2 1 6.22378 4.62679 4.416
1 1 4.63163 4.18738 3.7956
5 2 5.1547 4.77916 4.53712
3 1 4.88124 4.43321 5.54017
4 1 4.95797 5.8553 4.44647
ITEM: TIMESTEP
500
ITEM: NUMBER OF ATOMS
5
ITEM: BOX BOUNDS xy xz yz pp pp pp
0.0000000000000000e+00 1.0289339721999999e+01 3.6749877000000000e-02
-5.6322168999999998e-02 1.0263123642000000e+01 1.3833062300000001e-01
0.0000000000000000e+00 1.0216793284000000e+01 -5.6322168999999998e-02
ITEM: ATOMS id type x y z
2 1 5.89827 4.02014 4.82674
1 1 4.66538 4.45338 3.62123
5 2 5.15738 4.78236 4.53766
3 1 4.45778 4.85917 5.35451
4 1 5.64098 5.73167 4.38933
ITEM: TIMESTEP
600
ITEM: NUMBER OF ATOMS
5
ITEM: BOX BOUNDS xy xz yz pp pp pp
0.0000000000000000e+00 1.0289339721999999e+01 3.6749877000000000e-02
-5.6322168999999998e-02 1.0263123642000000e+01 1.3833062300000001e-01
0.0000000000000000e+00 1.0216793284000000e+01 -5.6322168999999998e-02
ITEM: ATOMS id type x y z
2 1 5.23014 3.83927 5.05103
1 1 4.85794 4.63212 3.50727
5 2 5.16191 4.77767 4.53774
3 1 4.38835 5.3675 5.038
4 1 6.13165 5.28165 4.59455
ITEM: TIMESTEP
700
ITEM: NUMBER OF ATOMS
5
ITEM: BOX BOUNDS xy xz yz pp pp pp
0.0000000000000000e+00 1.0289339721999999e+01 3.6749877000000000e-02
-5.6322168999999998e-02 1.0263123642000000e+01 1.3833062300000001e-01
0.0000000000000000e+00 1.0216793284000000e+01 -5.6322168999999998e-02
ITEM: ATOMS id type x y z
2 1 4.53037 4.02057 5.01719
1 1 5.12267 4.60951 3.46706
5 2 5.16454 4.77769 4.53914
3 1 4.74541 5.75553 4.76664
4 1 6.17812 4.73472 4.92316
ITEM: TIMESTEP
800
ITEM: NUMBER OF ATOMS
5
ITEM: BOX BOUNDS xy xz yz pp pp pp
0.0000000000000000e+00 1.0289339721999999e+01 3.6749877000000000e-02
-5.6322168999999998e-02 1.0263123642000000e+01 1.3833062300000001e-01
0.0000000000000000e+00 1.0216793284000000e+01 -5.6322168999999998e-02
ITEM: ATOMS id type x y z
2 1 4.13137 4.51882 4.81089
1 1 5.36498 4.48388 3.50053
5 2 5.16323 4.77466 4.54214
3 1 5.22769 5.8622 4.61046
4 1 5.86824 4.2918 5.2161
ITEM: TIMESTEP
900
ITEM: NUMBER OF ATOMS
5
ITEM: BOX BOUNDS xy xz yz pp pp pp
0.0000000000000000e+00 1.0289339721999999e+01 3.6749877000000000e-02
-5.6322168999999998e-02 1.0263123642000000e+01 1.3833062300000001e-01
0.0000000000000000e+00 1.0216793284000000e+01 -5.6322168999999998e-02
ITEM: ATOMS id type x y z
2 1 4.10061 5.02299 4.49211
1 1 5.44193 4.30507 3.59363
5 2 5.1604 4.77256 4.54246
3 1 5.72882 5.72027 4.62576
4 1 5.35481 4.13361 5.42267
ITEM: TIMESTEP
1000
ITEM: NUMBER OF ATOMS
5
ITEM: BOX BOUNDS xy xz yz pp pp pp
0.0000000000000000e+00 1.0289339721999999e+01 3.6749877000000000e-02
-5.6322168999999998e-02 1.0263123642000000e+01 1.3833062300000001e-01
0.0000000000000000e+00 1.0216793284000000e+01 -5.6322168999999998e-02
ITEM: ATOMS id type x y z
1 1 5.40724 4.09733 3.7075
5 2 5.15991 4.77284 4.5447
2 1 4.34866 5.45728 4.19587
3 1 6.01939 5.41378 4.77103
4 1 4.85673 4.21015 5.43296
ITEM: TIMESTEP
1100
ITEM: NUMBER OF ATOMS
5
ITEM: BOX BOUNDS xy xz yz pp pp pp
0.0000000000000000e+00 1.0289339721999999e+01 3.6749877000000000e-02
-5.6322168999999998e-02 1.0263123642000000e+01 1.3833062300000001e-01
0.0000000000000000e+00 1.0216793284000000e+01 -5.6322168999999998e-02
ITEM: ATOMS id type x y z
1 1 5.31247 3.96469 3.80708
5 2 5.15631 4.77522 4.54327
2 1 4.75625 5.65547 4.03061
3 1 6.14907 5.05651 4.9458
4 1 4.45752 4.47338 5.341
ITEM: TIMESTEP
1200
ITEM: NUMBER OF ATOMS
5
ITEM: BOX BOUNDS xy xz yz pp pp pp
0.0000000000000000e+00 1.0289339721999999e+01 3.6749877000000000e-02
-5.6322168999999998e-02 1.0263123642000000e+01 1.3833062300000001e-01
0.0000000000000000e+00 1.0216793284000000e+01 -5.6322168999999998e-02
ITEM: ATOMS id type x y z
1 1 5.14302 3.92076 3.86198
5 2 5.15616 4.77605 4.54273
2 1 5.21045 5.67956 3.91516
3 1 6.06056 4.7377 5.16813
4 1 4.263 4.80204 5.1857
ITEM: TIMESTEP
1300
ITEM: NUMBER OF ATOMS
5
ITEM: BOX BOUNDS xy xz yz pp pp pp
0.0000000000000000e+00 1.0289339721999999e+01 3.6749877000000000e-02
-5.6322168999999998e-02 1.0263123642000000e+01 1.3833062300000001e-01
0.0000000000000000e+00 1.0216793284000000e+01 -5.6322168999999998e-02
ITEM: ATOMS id type x y z
1 1 4.96528 3.90645 3.90285
5 2 5.15608 4.77826 4.54293
2 1 5.62099 5.57434 3.93943
3 1 5.87021 4.5017 5.31569
4 1 4.2216 5.13098 4.97063
ITEM: TIMESTEP
1400
ITEM: NUMBER OF ATOMS
5
ITEM: BOX BOUNDS xy xz yz pp pp pp
0.0000000000000000e+00 1.0289339721999999e+01 3.6749877000000000e-02
-5.6322168999999998e-02 1.0263123642000000e+01 1.3833062300000001e-01
0.0000000000000000e+00 1.0216793284000000e+01 -5.6322168999999998e-02
ITEM: ATOMS id type x y z
1 1 4.83118 3.96233 3.89998
5 2 5.15756 4.78015 4.54021
2 1 5.92041 5.3359 4.0165
3 1 5.58496 4.35137 5.45521
4 1 4.32374 5.44125 4.78954
ITEM: TIMESTEP
1500
ITEM: NUMBER OF ATOMS
5
ITEM: BOX BOUNDS xy xz yz pp pp pp
0.0000000000000000e+00 1.0289339721999999e+01 3.6749877000000000e-02
-5.6322168999999998e-02 1.0263123642000000e+01 1.3833062300000001e-01
0.0000000000000000e+00 1.0216793284000000e+01 -5.6322168999999998e-02
ITEM: ATOMS id type x y z
1 1 4.70297 4.06574 3.86082
5 2 5.15799 4.78024 4.54084
2 1 6.15157 5.03946 4.15764
3 1 5.27905 4.32552 5.5174
4 1 4.52155 5.65909 4.61776
ITEM: TIMESTEP
1600
ITEM: NUMBER OF ATOMS
5
ITEM: BOX BOUNDS xy xz yz pp pp pp
0.0000000000000000e+00 1.0289339721999999e+01 3.6749877000000000e-02
-5.6322168999999998e-02 1.0263123642000000e+01 1.3833062300000001e-01
0.0000000000000000e+00 1.0216793284000000e+01 -5.6322168999999998e-02
ITEM: ATOMS id type x y z
1 1 4.61144 4.16817 3.81525
5 2 5.1603 4.78155 4.53996
2 1 6.23126 4.72762 4.33719
3 1 4.96113 4.36538 5.52871
4 1 4.82356 5.81291 4.48304
ITEM: TIMESTEP
1700
ITEM: NUMBER OF ATOMS
5
ITEM: BOX BOUNDS xy xz yz pp pp pp
0.0000000000000000e+00 1.0289339721999999e+01 3.6749877000000000e-02
-5.6322168999999998e-02 1.0263123642000000e+01 1.3833062300000001e-01
0.0000000000000000e+00 1.0216793284000000e+01 -5.6322168999999998e-02
ITEM: ATOMS id type x y z
1 1 4.60025 4.30375 3.73137
5 2 5.16261 4.78029 4.53905
2 1 6.1735 4.37717 4.53173
3 1 4.67752 4.53341 5.49923
4 1 5.14845 5.87479 4.41279
ITEM: TIMESTEP
1800
ITEM: NUMBER OF ATOMS
5
ITEM: BOX BOUNDS xy xz yz pp pp pp
0.0000000000000000e+00 1.0289339721999999e+01 3.6749877000000000e-02
-5.6322168999999998e-02 1.0263123642000000e+01 1.3833062300000001e-01
0.0000000000000000e+00 1.0216793284000000e+01 -5.6322168999999998e-02
ITEM: ATOMS id type x y z
1 1 4.60458 4.45473 3.64656
5 2 5.16311 4.78035 4.53996
2 1 6.00308 4.0838 4.75234
3 1 4.46746 4.74382 5.38375
4 1 5.51855 5.80606 4.38159
ITEM: TIMESTEP
1900
ITEM: NUMBER OF ATOMS
5
ITEM: BOX BOUNDS xy xz yz pp pp pp
0.0000000000000000e+00 1.0289339721999999e+01 3.6749877000000000e-02
-5.6322168999999998e-02 1.0263123642000000e+01 1.3833062300000001e-01
0.0000000000000000e+00 1.0216793284000000e+01 -5.6322168999999998e-02
ITEM: ATOMS id type x y z
1 1 4.69353 4.55964 3.5634
5 2 5.16572 4.77778 4.54017
2 1 5.65845 3.8737 4.91111
3 1 4.34262 5.06421 5.22717
4 1 5.86774 5.62172 4.45998
ITEM: TIMESTEP
2000
ITEM: NUMBER OF ATOMS
5
ITEM: BOX BOUNDS xy xz yz pp pp pp
0.0000000000000000e+00 1.0289339721999999e+01 3.6749877000000000e-02
-5.6322168999999998e-02 1.0263123642000000e+01 1.3833062300000001e-01
0.0000000000000000e+00 1.0216793284000000e+01 -5.6322168999999998e-02
ITEM: ATOMS id type x y z
1 1 4.87753 4.65345 3.491
5 2 5.16446 4.77565 4.54053
2 1 5.17848 3.79224 5.03469
3 1 4.39326 5.38708 5.03726
4 1 6.12817 5.31206 4.59446
ITEM: TIMESTEP
2100
ITEM: NUMBER OF ATOMS
5
ITEM: BOX BOUNDS xy xz yz pp pp pp
0.0000000000000000e+00 1.0289339721999999e+01 3.6749877000000000e-02
-5.6322168999999998e-02 1.0263123642000000e+01 1.3833062300000001e-01
0.0000000000000000e+00 1.0216793284000000e+01 -5.6322168999999998e-02
ITEM: ATOMS id type x y z
1 1 5.08806 4.68072 3.44714
5 2 5.16388 4.77484 4.54185
2 1 4.65703 3.93393 5.04534
3 1 4.63683 5.69393 4.79335
4 1 6.20251 4.84602 4.8557
ITEM: TIMESTEP
2200
ITEM: NUMBER OF ATOMS
5
ITEM: BOX BOUNDS xy xz yz pp pp pp
0.0000000000000000e+00 1.0289339721999999e+01 3.6749877000000000e-02
-5.6322168999999998e-02 1.0263123642000000e+01 1.3833062300000001e-01
0.0000000000000000e+00 1.0216793284000000e+01 -5.6322168999999998e-02
ITEM: ATOMS id type x y z
1 1 5.32547 4.54255 3.49134
5 2 5.1598 4.77222 4.54187
2 1 4.20432 4.36956 4.83317
3 1 5.12102 5.868 4.65851
4 1 5.98253 4.40586 5.1582
ITEM: TIMESTEP
2300
ITEM: NUMBER OF ATOMS
5
ITEM: BOX BOUNDS xy xz yz pp pp pp
0.0000000000000000e+00 1.0289339721999999e+01 3.6749877000000000e-02
-5.6322168999999998e-02 1.0263123642000000e+01 1.3833062300000001e-01
0.0000000000000000e+00 1.0216793284000000e+01 -5.6322168999999998e-02
ITEM: ATOMS id type x y z
1 1 5.48895 4.30876 3.62107
5 2 5.15819 4.77478 4.54026
2 1 4.0824 4.99447 4.51492
3 1 5.67374 5.71624 4.63959
4 1 5.40762 4.13578 5.38507
ITEM: TIMESTEP
2400
ITEM: NUMBER OF ATOMS
5
ITEM: BOX BOUNDS xy xz yz pp pp pp
0.0000000000000000e+00 1.0289339721999999e+01 3.6749877000000000e-02
-5.6322168999999998e-02 1.0263123642000000e+01 1.3833062300000001e-01
0.0000000000000000e+00 1.0216793284000000e+01 -5.6322168999999998e-02
ITEM: ATOMS id type x y z
1 1 5.4176 4.04383 3.77239
5 2 5.15498 4.77693 4.53995
2 1 4.49379 5.52578 4.12138
3 1 6.07496 5.25592 4.87149
4 1 4.70491 4.30389 5.39904
ITEM: TIMESTEP
2500
ITEM: NUMBER OF ATOMS
5
ITEM: BOX BOUNDS xy xz yz pp pp pp
0.0000000000000000e+00 1.0289339721999999e+01 3.6749877000000000e-02
-5.6322168999999998e-02 1.0263123642000000e+01 1.3833062300000001e-01
0.0000000000000000e+00 1.0216793284000000e+01 -5.6322168999999998e-02
ITEM: ATOMS id type x y z
1 1 5.12109 3.89543 3.91574
5 2 5.15706 4.78012 4.53556
2 1 5.2715 5.67028 3.93437
3 1 6.01833 4.72054 5.21113
4 1 4.25532 4.80488 5.15582
ITEM: TIMESTEP
2600
ITEM: NUMBER OF ATOMS
5
ITEM: BOX BOUNDS xy xz yz pp pp pp
0.0000000000000000e+00 1.0289339721999999e+01 3.6749877000000000e-02
-5.6322168999999998e-02 1.0263123642000000e+01 1.3833062300000001e-01
0.0000000000000000e+00 1.0216793284000000e+01 -5.6322168999999998e-02
ITEM: ATOMS id type x y z
1 1 4.7973 3.9385 3.93726
5 2 5.15969 4.78107 4.53627
2 1 5.99349 5.3132 4.04985
3 1 5.49826 4.3536 5.46745
4 1 4.34563 5.47451 4.75392
ITEM: TIMESTEP
2700
ITEM: NUMBER OF ATOMS
5
ITEM: BOX BOUNDS xy xz yz pp pp pp
0.0000000000000000e+00 1.0289339721999999e+01 3.6749877000000000e-02
-5.6322168999999998e-02 1.0263123642000000e+01 1.3833062300000001e-01
0.0000000000000000e+00 1.0216793284000000e+01 -5.6322168999999998e-02
ITEM: ATOMS id type x y z
1 1 4.60107 4.203 3.78965
5 2 5.16483 4.78164 4.5346
2 1 6.22461 4.56478 4.438
3 1 4.83567 4.46436 5.54886
4 1 4.9117 5.84085 4.45198
ITEM: TIMESTEP
2800
ITEM: NUMBER OF ATOMS
5
ITEM: BOX BOUNDS xy xz yz pp pp pp
0.0000000000000000e+00 1.0289339721999999e+01 3.6749877000000000e-02
-5.6322168999999998e-02 1.0263123642000000e+01 1.3833062300000001e-01
0.0000000000000000e+00 1.0216793284000000e+01 -5.6322168999999998e-02
ITEM: ATOMS id type x y z
1 1 4.6287 4.51033 3.61802
5 2 5.16608 4.77671 4.53696
2 1 5.83989 3.97175 4.88169
3 1 4.3904 4.90909 5.30438
4 1 5.6991 5.74099 4.39611
ITEM: TIMESTEP
2900
ITEM: NUMBER OF ATOMS
5
ITEM: BOX BOUNDS xy xz yz pp pp pp
0.0000000000000000e+00 1.0289339721999999e+01 3.6749877000000000e-02
-5.6322168999999998e-02 1.0263123642000000e+01 1.3833062300000001e-01
0.0000000000000000e+00 1.0216793284000000e+01 -5.6322168999999998e-02
ITEM: ATOMS id type x y z
1 1 4.892 4.64522 3.46913
5 2 5.16689 4.77568 4.54038
2 1 5.02292 3.81106 5.07262
3 1 4.4537 5.5121 4.94497
4 1 6.1797 5.1761 4.6725
ITEM: TIMESTEP
3000
ITEM: NUMBER OF ATOMS
5
ITEM: BOX BOUNDS xy xz yz pp pp pp
0.0000000000000000e+00 1.0289339721999999e+01 3.6749877000000000e-02
-5.6322168999999998e-02 1.0263123642000000e+01 1.3833062300000001e-01
0.0000000000000000e+00 1.0216793284000000e+01 -5.6322168999999998e-02
ITEM: ATOMS id type x y z
2 1 4.29437 4.23242 4.94036
1 1 5.25826 4.56518 3.46602
5 2 5.1615 4.7717 4.54215
4 1 6.11453 4.53199 5.04847
3 1 4.9458 5.86262 4.683
ITEM: TIMESTEP
3100
ITEM: NUMBER OF ATOMS
5
ITEM: BOX BOUNDS xy xz yz pp pp pp
0.0000000000000000e+00 1.0289339721999999e+01 3.6749877000000000e-02
-5.6322168999999998e-02 1.0263123642000000e+01 1.3833062300000001e-01
0.0000000000000000e+00 1.0216793284000000e+01 -5.6322168999999998e-02
ITEM: ATOMS id type x y z
2 1 4.05317 4.89436 4.58913
1 1 5.45511 4.35061 3.56835
5 2 5.15873 4.77595 4.543
4 1 5.50642 4.14058 5.38119
3 1 5.6315 5.75571 4.58901
ITEM: TIMESTEP
3200
ITEM: NUMBER OF ATOMS
5
ITEM: BOX BOUNDS xy xz yz pp pp pp
0.0000000000000000e+00 1.0289339721999999e+01 3.6749877000000000e-02
-5.6322168999999998e-02 1.0263123642000000e+01 1.3833062300000001e-01
0.0000000000000000e+00 1.0216793284000000e+01 -5.6322168999999998e-02
ITEM: ATOMS id type x y z
2 1 4.41958 5.48943 4.15209
1 1 5.38333 4.06139 3.73755
5 2 5.15501 4.7786 4.5434
4 1 4.8053 4.23532 5.41875
3 1 6.08263 5.32331 4.8145
ITEM: TIMESTEP
3300
ITEM: NUMBER OF ATOMS
5
ITEM: BOX BOUNDS xy xz yz pp pp pp
0.0000000000000000e+00 1.0289339721999999e+01 3.6749877000000000e-02
-5.6322168999999998e-02 1.0263123642000000e+01 1.3833062300000001e-01
0.0000000000000000e+00 1.0216793284000000e+01 -5.6322168999999998e-02
ITEM: ATOMS id type x y z
2 1 5.12121 5.69625 3.94543
1 1 5.16001 3.90769 3.89119
5 2 5.15719 4.78276 4.53999
4 1 4.29271 4.69723 5.21806
3 1 6.09077 4.75833 5.10919
ITEM: TIMESTEP
3400
ITEM: NUMBER OF ATOMS
5
ITEM: BOX BOUNDS xy xz yz pp pp pp
0.0000000000000000e+00 1.0289339721999999e+01 3.6749877000000000e-02
-5.6322168999999998e-02 1.0263123642000000e+01 1.3833062300000001e-01
0.0000000000000000e+00 1.0216793284000000e+01 -5.6322168999999998e-02
ITEM: ATOMS id type x y z
2 1 5.82199 5.43746 3.96555
1 1 4.88302 3.93669 3.9098
5 2 5.15902 4.78414 4.54139
4 1 4.26648 5.30214 4.87528
3 1 5.67128 4.36663 5.39638
ITEM: TIMESTEP
3500
ITEM: NUMBER OF ATOMS
5
ITEM: BOX BOUNDS xy xz yz pp pp pp
0.0000000000000000e+00 1.0289339721999999e+01 3.6749877000000000e-02
-5.6322168999999998e-02 1.0263123642000000e+01 1.3833062300000001e-01
0.0000000000000000e+00 1.0216793284000000e+01 -5.6322168999999998e-02
ITEM: ATOMS id type x y z
2 1 6.19676 4.872 4.25082
1 1 4.65266 4.13179 3.83752
5 2 5.16315 4.7849 4.53882
4 1 4.62661 5.7202 4.56012
3 1 5.11714 4.30987 5.52939
ITEM: TIMESTEP
3600
ITEM: NUMBER OF ATOMS
5
ITEM: BOX BOUNDS xy xz yz pp pp pp
0.0000000000000000e+00 1.0289339721999999e+01 3.6749877000000000e-02
-5.6322168999999998e-02 1.0263123642000000e+01 1.3833062300000001e-01
0.0000000000000000e+00 1.0216793284000000e+01 -5.6322168999999998e-02
ITEM: ATOMS id type x y z
2 1 6.14141 4.30593 4.59388
1 1 4.59351 4.3441 3.72722
5 2 5.16404 4.7811 4.54094
4 1 5.25362 5.86544 4.40507
3 1 4.594 4.56394 5.42621
ITEM: TIMESTEP
3700
ITEM: NUMBER OF ATOMS
5
ITEM: BOX BOUNDS xy xz yz pp pp pp
0.0000000000000000e+00 1.0289339721999999e+01 3.6749877000000000e-02
-5.6322168999999998e-02 1.0263123642000000e+01 1.3833062300000001e-01
0.0000000000000000e+00 1.0216793284000000e+01 -5.6322168999999998e-02
ITEM: ATOMS id type x y z
2 1 5.68608 3.88604 4.89545
1 1 4.72283 4.54729 3.56791
5 2 5.16579 4.78037 4.54124
4 1 5.80187 5.64744 4.44479
3 1 4.35079 5.00736 5.24075
ITEM: TIMESTEP
3800
ITEM: NUMBER OF ATOMS
5
ITEM: BOX BOUNDS xy xz yz pp pp pp
0.0000000000000000e+00 1.0289339721999999e+01 3.6749877000000000e-02
-5.6322168999999998e-02 1.0263123642000000e+01 1.3833062300000001e-01
0.0000000000000000e+00 1.0216793284000000e+01 -5.6322168999999998e-02
ITEM: ATOMS id type x y z
2 1 5.0913 3.81366 5.05158
1 1 4.93225 4.65938 3.47609
5 2 5.16332 4.77579 4.54191
4 1 6.166 5.21704 4.65044
3 1 4.4016 5.45302 4.96266
ITEM: TIMESTEP
3900
ITEM: NUMBER OF ATOMS
5
ITEM: BOX BOUNDS xy xz yz pp pp pp
0.0000000000000000e+00 1.0289339721999999e+01 3.6749877000000000e-02
-5.6322168999999998e-02 1.0263123642000000e+01 1.3833062300000001e-01
0.0000000000000000e+00 1.0216793284000000e+01 -5.6322168999999998e-02
ITEM: ATOMS id type x y z
2 1 4.50867 4.0104 5.00431
1 1 5.17002 4.6207 3.45038
5 2 5.16071 4.7766 4.54193
4 1 6.18779 4.7286 4.95834
3 1 4.75599 5.77371 4.72755
ITEM: TIMESTEP
4000
ITEM: NUMBER OF ATOMS
5
ITEM: BOX BOUNDS xy xz yz pp pp pp
0.0000000000000000e+00 1.0289339721999999e+01 3.6749877000000000e-02
-5.6322168999999998e-02 1.0263123642000000e+01 1.3833062300000001e-01
0.0000000000000000e+00 1.0216793284000000e+01 -5.6322168999999998e-02
ITEM: ATOMS id type x y z
2 1 4.1369 4.46118 4.81145
1 1 5.39401 4.47059 3.50633
5 2 5.15829 4.77414 4.54179
3 1 5.20384 5.88792 4.62576
4 1 5.91673 4.34325 5.19871
ITEM: TIMESTEP
4100
ITEM: NUMBER OF ATOMS
5
ITEM: BOX BOUNDS xy xz yz pp pp pp
0.0000000000000000e+00 1.0289339721999999e+01 3.6749877000000000e-02
-5.6322168999999998e-02 1.0263123642000000e+01 1.3833062300000001e-01
0.0000000000000000e+00 1.0216793284000000e+01 -5.6322168999999998e-02
ITEM: ATOMS id type x y z
2 1 4.06885 4.94498 4.54088
1 1 5.48804 4.30254 3.60211
5 2 5.15555 4.77748 4.53908
3 1 5.69157 5.72825 4.61792
4 1 5.43598 4.14715 5.4138
ITEM: TIMESTEP
4200
ITEM: NUMBER OF ATOMS
5
ITEM: BOX BOUNDS xy xz yz pp pp pp
0.0000000000000000e+00 1.0289339721999999e+01 3.6749877000000000e-02
-5.6322168999999998e-02 1.0263123642000000e+01 1.3833062300000001e-01
0.0000000000000000e+00 1.0216793284000000e+01 -5.6322168999999998e-02
ITEM: ATOMS id type x y z
2 1 4.29946 5.39752 4.22935
1 1 5.43926 4.08686 3.73518
5 2 5.15521 4.7781 4.53839
3 1 6.00784 5.43132 4.77581
4 1 4.94192 4.1997 5.4427
ITEM: TIMESTEP
4300
ITEM: NUMBER OF ATOMS
5
ITEM: BOX BOUNDS xy xz yz pp pp pp
0.0000000000000000e+00 1.0289339721999999e+01 3.6749877000000000e-02
-5.6322168999999998e-02 1.0263123642000000e+01 1.3833062300000001e-01
0.0000000000000000e+00 1.0216793284000000e+01 -5.6322168999999998e-02
ITEM: ATOMS id type x y z
2 1 4.75169 5.65555 4.03179
1 1 5.31266 3.9375 3.85909
5 2 5.15458 4.78027 4.53591
3 1 6.1301 5.03634 4.9774
4 1 4.50163 4.46006 5.34449
ITEM: TIMESTEP
4400
ITEM: NUMBER OF ATOMS
5
ITEM: BOX BOUNDS xy xz yz pp pp pp
0.0000000000000000e+00 1.0289339721999999e+01 3.6749877000000000e-02
-5.6322168999999998e-02 1.0263123642000000e+01 1.3833062300000001e-01
0.0000000000000000e+00 1.0216793284000000e+01 -5.6322168999999998e-02
ITEM: ATOMS id type x y z
2 1 5.30363 5.66686 3.92506
1 1 5.10537 3.88658 3.9192
5 2 5.15862 4.78113 4.53559
3 1 5.98389 4.65219 5.21597
4 1 4.25461 4.87343 5.15636
ITEM: TIMESTEP
4500
ITEM: NUMBER OF ATOMS
5
ITEM: BOX BOUNDS xy xz yz pp pp pp
0.0000000000000000e+00 1.0289339721999999e+01 3.6749877000000000e-02
-5.6322168999999998e-02 1.0263123642000000e+01 1.3833062300000001e-01
0.0000000000000000e+00 1.0216793284000000e+01 -5.6322168999999998e-02
ITEM: ATOMS id type x y z
2 1 5.83675 5.43925 3.99366
1 1 4.85273 3.93019 3.93452
5 2 5.15847 4.78208 4.53477
3 1 5.68453 4.40972 5.42216
4 1 4.27542 5.28847 4.87615
ITEM: TIMESTEP
4600
ITEM: NUMBER OF ATOMS
5
ITEM: BOX BOUNDS xy xz yz pp pp pp
0.0000000000000000e+00 1.0289339721999999e+01 3.6749877000000000e-02
-5.6322168999999998e-02 1.0263123642000000e+01 1.3833062300000001e-01
0.0000000000000000e+00 1.0216793284000000e+01 -5.6322168999999998e-02
ITEM: ATOMS id type x y z
2 1 6.16057 5.01813 4.19197
1 1 4.67976 4.05155 3.88684
5 2 5.16246 4.78039 4.53532
3 1 5.19955 4.32391 5.5233
4 1 4.56157 5.69435 4.61774
ITEM: TIMESTEP
4700
ITEM: NUMBER OF ATOMS
5
ITEM: BOX BOUNDS xy xz yz pp pp pp
0.0000000000000000e+00 1.0289339721999999e+01 3.6749877000000000e-02
-5.6322168999999998e-02 1.0263123642000000e+01 1.3833062300000001e-01
0.0000000000000000e+00 1.0216793284000000e+01 -5.6322168999999998e-02
ITEM: ATOMS id type x y z
2 1 6.2142 4.46223 4.50221
1 1 4.59055 4.27456 3.7487
5 2 5.16289 4.77909 4.53788
3 1 4.75023 4.50092 5.50677
4 1 5.04137 5.86582 4.43144
ITEM: TIMESTEP
4800
ITEM: NUMBER OF ATOMS
5
ITEM: BOX BOUNDS xy xz yz pp pp pp
0.0000000000000000e+00 1.0289339721999999e+01 3.6749877000000000e-02
-5.6322168999999998e-02 1.0263123642000000e+01 1.3833062300000001e-01
0.0000000000000000e+00 1.0216793284000000e+01 -5.6322168999999998e-02
ITEM: ATOMS id type x y z
2 1 5.88957 4.00401 4.84147
1 1 4.64318 4.50168 3.60918
5 2 5.16452 4.77705 4.53853
3 1 4.38467 4.88255 5.3281
4 1 5.6593 5.73978 4.4026
ITEM: TIMESTEP
4900
ITEM: NUMBER OF ATOMS
5
ITEM: BOX BOUNDS xy xz yz pp pp pp
0.0000000000000000e+00 1.0289339721999999e+01 3.6749877000000000e-02
-5.6322168999999998e-02 1.0263123642000000e+01 1.3833062300000001e-01
0.0000000000000000e+00 1.0216793284000000e+01 -5.6322168999999998e-02
ITEM: ATOMS id type x y z
2 1 5.21383 3.79543 5.03532
1 1 4.87416 4.6254 3.48518
5 2 5.15995 4.77504 4.543
3 1 4.40022 5.41971 5.00225
4 1 6.14335 5.31167 4.60494
ITEM: TIMESTEP
5000
ITEM: NUMBER OF ATOMS
5
ITEM: BOX BOUNDS xy xz yz pp pp pp
0.0000000000000000e+00 1.0289339721999999e+01 3.6749877000000000e-02
-5.6322168999999998e-02 1.0263123642000000e+01 1.3833062300000001e-01
0.0000000000000000e+00 1.0216793284000000e+01 -5.6322168999999998e-02
ITEM: ATOMS id type x y z
2 1 4.42678 4.0744 5.00763
1 1 5.23901 4.58539 3.45493
5 2 5.15787 4.77603 4.54494
4 1 6.17024 4.66189 4.9403
3 1 4.82058 5.81853 4.70155
