ITEM: TIMESTEP
0
ITEM: NUMBER OF ATOMS
5
ITEM: BOX BOUNDS xy xz yz pp pp pp
0.0000000000000000e+00 1.0289339721999999e+01 3.6749877000000000e-02
-5.6322168999999998e-02 1.0263123642000000e+01 1.3833062300000001e-01
0.0000000000000000e+00 1.0216793284000000e+01 -5.6322168999999998e-02
ITEM: ATOMS id type x y z
2 1 4.05859 4.94539 4.52744
1 1 5.45139 4.32697 3.56645
5 2 5.16284 4.77314 4.5439
3 1 5.61737 5.77213 4.64888
4 1 5.46957 4.13046 5.37415
ITEM: TIMESTEP
100
ITEM: NUMBER OF ATOMS
5
ITEM: BOX BOUNDS xy xz yz pp pp pp
0.0000000000000000e+00 1.0289339721999999e+01 3.6749877000000000e-02
-5.6322168999999998e-02 1.0263123642000000e+01 1.3833062300000001e-01
0.0000000000000000e+00 1.0216793284000000e+01 -5.6322168999999998e-02
ITEM: ATOMS id type x y z
2 1 4.48639 5.53369 4.14167
1 1 5.4273 4.06132 3.75241
5 2 5.15655 4.77199 4.54155
3 1 6.08662 5.307 4.83099
4 1 4.6721 4.28678 5.42008
ITEM: TIMESTEP
200
ITEM: NUMBER OF ATOMS
5
ITEM: BOX BOUNDS xy xz yz pp pp pp
0.0000000000000000e+00 1.0289339721999999e+01 3.6749877000000000e-02
-5.6322168999999998e-02 1.0263123642000000e+01 1.3833062300000001e-01
0.0000000000000000e+00 1.0216793284000000e+01 -5.6322168999999998e-02
ITEM: ATOMS id type x y z
2 1 5.29791 5.67667 3.91072
1 1 5.14161 3.91043 3.8618
5 2 5.15372 4.77247 4.54433
3 1 6.01635 4.73173 5.20636
4 1 4.25045 4.86415 5.13289
ITEM: TIMESTEP
300
ITEM: NUMBER OF ATOMS
5
ITEM: BOX BOUNDS xy xz yz pp pp pp
0.0000000000000000e+00 1.0289339721999999e+01 3.6749877000000000e-02
-5.6322168999999998e-02 1.0263123642000000e+01 1.3833062300000001e-01
0.0000000000000000e+00 1.0216793284000000e+01 -5.6322168999999998e-02
ITEM: ATOMS id type x y z
2 1 5.97849 5.29218 4.07471
1 1 4.81305 3.96325 3.90411
5 2 5.15441 4.77701 4.539
3 1 5.54949 4.36441 5.47549
4 1 4.357 5.50872 4.72137
ITEM: TIMESTEP
400
ITEM: NUMBER OF ATOMS
5
ITEM: BOX BOUNDS xy xz yz pp pp pp
0.0000000000000000e+00 1.0289339721999999e+01 3.6749877000000000e-02
-5.6322168999999998e-02 1.0263123642000000e+01 1.3833062300000001e-01
0.0000000000000000e+00 1.0216793284000000e+01 -5.6322168999999998e-02
ITEM: ATOMS id type x y z
2 1 6.22547 4.60739 4.40949
1 1 4.64276 4.19438 3.78382
5 2 5.1541 4.77974 4.53906
3 1 4.88621 4.4554 5.53678
4 1 4.94731 5.83855 4.44491
ITEM: TIMESTEP
500
ITEM: NUMBER OF ATOMS
5
ITEM: BOX BOUNDS xy xz yz pp pp pp
0.0000000000000000e+00 1.0289339721999999e+01 3.6749877000000000e-02
-5.6322168999999998e-02 1.0263123642000000e+01 1.3833062300000001e-01
0.0000000000000000e+00 1.0216793284000000e+01 -5.6322168999999998e-02
ITEM: ATOMS id type x y z
2 1 5.90654 4.04409 4.82495
1 1 4.64183 4.47024 3.63048
5 2 5.15897 4.78079 4.53799
3 1 4.44343 4.836 5.35116
4 1 5.65153 5.73281 4.38128
ITEM: TIMESTEP
600
ITEM: NUMBER OF ATOMS
5
ITEM: BOX BOUNDS xy xz yz pp pp pp
0.0000000000000000e+00 1.0289339721999999e+01 3.6749877000000000e-02
-5.6322168999999998e-02 1.0263123642000000e+01 1.3833062300000001e-01
0.0000000000000000e+00 1.0216793284000000e+01 -5.6322168999999998e-02
ITEM: ATOMS id type x y z
2 1 5.21873 3.81517 5.02844
1 1 4.85151 4.60624 3.51219
5 2 5.16262 4.77897 4.53778
3 1 4.40313 5.38268 5.05312
4 1 6.12621 5.30095 4.59665
ITEM: TIMESTEP
700
ITEM: NUMBER OF ATOMS
5
ITEM: BOX BOUNDS xy xz yz pp pp pp
0.0000000000000000e+00 1.0289339721999999e+01 3.6749877000000000e-02
-5.6322168999999998e-02 1.0263123642000000e+01 1.3833062300000001e-01
0.0000000000000000e+00 1.0216793284000000e+01 -5.6322168999999998e-02
ITEM: ATOMS id type x y z
2 1 4.53362 4.01712 5.04507
1 1 5.13626 4.63543 3.44682
5 2 5.16543 4.77818 4.54013
3 1 4.70851 5.74096 4.76486
4 1 6.18745 4.72091 4.90536
ITEM: TIMESTEP
800
ITEM: NUMBER OF ATOMS
5
ITEM: BOX BOUNDS xy xz yz pp pp pp
0.0000000000000000e+00 1.0289339721999999e+01 3.6749877000000000e-02
-5.6322168999999998e-02 1.0263123642000000e+01 1.3833062300000001e-01
0.0000000000000000e+00 1.0216793284000000e+01 -5.6322168999999998e-02
ITEM: ATOMS id type x y z
2 1 4.14427 4.48462 4.79242
1 1 5.32577 4.50166 3.48998
5 2 5.16374 4.77341 4.54124
3 1 5.23111 5.88096 4.62723
4 1 5.88501 4.30449 5.23922
ITEM: TIMESTEP
900
ITEM: NUMBER OF ATOMS
5
ITEM: BOX BOUNDS xy xz yz pp pp pp
0.0000000000000000e+00 1.0289339721999999e+01 3.6749877000000000e-02
-5.6322168999999998e-02 1.0263123642000000e+01 1.3833062300000001e-01
0.0000000000000000e+00 1.0216793284000000e+01 -5.6322168999999998e-02
ITEM: ATOMS id type x y z
2 1 4.07733 5.02941 4.50454
1 1 5.45102 4.29185 3.59222
5 2 5.1638 4.77328 4.54326
3 1 5.68208 5.73507 4.63172
4 1 5.37491 4.117 5.39613
ITEM: TIMESTEP
1000
ITEM: NUMBER OF ATOMS
5
ITEM: BOX BOUNDS xy xz yz pp pp pp
0.0000000000000000e+00 1.0289339721999999e+01 3.6749877000000000e-02
-5.6322168999999998e-02 1.0263123642000000e+01 1.3833062300000001e-01
0.0000000000000000e+00 1.0216793284000000e+01 -5.6322168999999998e-02
ITEM: ATOMS id type x y z
1 1 5.42927 4.12388 3.69439
5 2 5.15951 4.77334 4.54344
2 1 4.32517 5.4066 4.22356
3 1 6.01973 5.43204 4.76448
4 1 4.86265 4.21003 5.44005
ITEM: TIMESTEP
1100
ITEM: NUMBER OF ATOMS
5
ITEM: BOX BOUNDS xy xz yz pp pp pp
0.0000000000000000e+00 1.0289339721999999e+01 3.6749877000000000e-02
-5.6322168999999998e-02 1.0263123642000000e+01 1.3833062300000001e-01
0.0000000000000000e+00 1.0216793284000000e+01 -5.6322168999999998e-02
ITEM: ATOMS id type x y z
1 1 5.30425 3.98067 3.80823
5 2 5.1586 4.77475 4.54272
2 1 4.73274 5.64427 4.0259
3 1 6.12326 5.09458 4.95382
4 1 4.48756 4.43613 5.34318
ITEM: TIMESTEP
1200
ITEM: NUMBER OF ATOMS
5
ITEM: BOX BOUNDS xy xz yz pp pp pp
0.0000000000000000e+00 1.0289339721999999e+01 3.6749877000000000e-02
-5.6322168999999998e-02 1.0263123642000000e+01 1.3833062300000001e-01
0.0000000000000000e+00 1.0216793284000000e+01 -5.6322168999999998e-02
ITEM: ATOMS id type x y z
1 1 5.16998 3.90861 3.87504
5 2 5.15716 4.77651 4.54336
2 1 5.1534 5.68789 3.93204
3 1 6.06423 4.76283 5.14006
4 1 4.2775 4.77515 5.17624
ITEM: TIMESTEP
1300
ITEM: NUMBER OF ATOMS
5
ITEM: BOX BOUNDS xy xz yz pp pp pp
0.0000000000000000e+00 1.0289339721999999e+01 3.6749877000000000e-02
-5.6322168999999998e-02 1.0263123642000000e+01 1.3833062300000001e-01
0.0000000000000000e+00 1.0216793284000000e+01 -5.6322168999999998e-02
ITEM: ATOMS id type x y z
1 1 4.99046 3.91537 3.90634
5 2 5.15741 4.77865 4.54045
2 1 5.57276 5.56856 3.93435
3 1 5.88615 4.53377 5.32251
4 1 4.21276 5.09118 4.99508
ITEM: TIMESTEP
1400
ITEM: NUMBER OF ATOMS
5
ITEM: BOX BOUNDS xy xz yz pp pp pp
0.0000000000000000e+00 1.0289339721999999e+01 3.6749877000000000e-02
-5.6322168999999998e-02 1.0263123642000000e+01 1.3833062300000001e-01
0.0000000000000000e+00 1.0216793284000000e+01 -5.6322168999999998e-02
ITEM: ATOMS id type x y z
1 1 4.84479 3.94007 3.91518
5 2 5.15701 4.77969 4.5418
2 1 5.90002 5.38126 3.99694
3 1 5.61568 4.37241 5.43249
4 1 4.30642 5.4026 4.79755
ITEM: TIMESTEP
1500
ITEM: NUMBER OF ATOMS
5
ITEM: BOX BOUNDS xy xz yz pp pp pp
0.0000000000000000e+00 1.0289339721999999e+01 3.6749877000000000e-02
-5.6322168999999998e-02 1.0263123642000000e+01 1.3833062300000001e-01
0.0000000000000000e+00 1.0216793284000000e+01 -5.6322168999999998e-02
ITEM: ATOMS id type x y z
1 1 4.71734 4.03659 3.87058
5 2 5.1589 4.78165 4.53933
2 1 6.12612 5.06993 4.13537
3 1 5.31812 4.32954 5.53132
4 1 4.4826 5.63682 4.63449
ITEM: TIMESTEP
1600
ITEM: NUMBER OF ATOMS
5
ITEM: BOX BOUNDS xy xz yz pp pp pp
0.0000000000000000e+00 1.0289339721999999e+01 3.6749877000000000e-02
-5.6322168999999998e-02 1.0263123642000000e+01 1.3833062300000001e-01
0.0000000000000000e+00 1.0216793284000000e+01 -5.6322168999999998e-02
ITEM: ATOMS id type x y z
1 1 4.61707 4.1372 3.83596
5 2 5.15996 4.78205 4.53932
2 1 6.23685 4.76436 4.30986
3 1 5.00175 4.35475 5.53746
4 1 4.77581 5.81175 4.48865
ITEM: TIMESTEP
1700
ITEM: NUMBER OF ATOMS
5
ITEM: BOX BOUNDS xy xz yz pp pp pp
0.0000000000000000e+00 1.0289339721999999e+01 3.6749877000000000e-02
-5.6322168999999998e-02 1.0263123642000000e+01 1.3833062300000001e-01
0.0000000000000000e+00 1.0216793284000000e+01 -5.6322168999999998e-02
ITEM: ATOMS id type x y z
1 1 4.58968 4.27081 3.74366
5 2 5.16181 4.78309 4.5392
2 1 6.19861 4.40229 4.5079
3 1 4.72091 4.51349 5.51059
4 1 5.10005 5.86894 4.41121
ITEM: TIMESTEP
1800
ITEM: NUMBER OF ATOMS
5
ITEM: BOX BOUNDS xy xz yz pp pp pp
0.0000000000000000e+00 1.0289339721999999e+01 3.6749877000000000e-02
-5.6322168999999998e-02 1.0263123642000000e+01 1.3833062300000001e-01
0.0000000000000000e+00 1.0216793284000000e+01 -5.6322168999999998e-02
ITEM: ATOMS id type x y z
1 1 4.58828 4.42251 3.67669
5 2 5.16424 4.78076 4.53834
2 1 6.01914 4.12626 4.72174
3 1 4.48474 4.71085 5.41166
4 1 5.488 5.82396 4.3735
ITEM: TIMESTEP
1900
ITEM: NUMBER OF ATOMS
5
ITEM: BOX BOUNDS xy xz yz pp pp pp
0.0000000000000000e+00 1.0289339721999999e+01 3.6749877000000000e-02
-5.6322168999999998e-02 1.0263123642000000e+01 1.3833062300000001e-01
0.0000000000000000e+00 1.0216793284000000e+01 -5.6322168999999998e-02
ITEM: ATOMS id type x y z
1 1 4.6837 4.53523 3.58028
5 2 5.16392 4.78144 4.53978
2 1 5.6929 3.87506 4.89428
3 1 4.3803 5.02463 5.25257
4 1 5.82703 5.64042 4.43924
ITEM: TIMESTEP
2000
ITEM: NUMBER OF ATOMS
5
ITEM: BOX BOUNDS xy xz yz pp pp pp
0.0000000000000000e+00 1.0289339721999999e+01 3.6749877000000000e-02
-5.6322168999999998e-02 1.0263123642000000e+01 1.3833062300000001e-01
0.0000000000000000e+00 1.0216793284000000e+01 -5.6322168999999998e-02
ITEM: ATOMS id type x y z
1 1 4.84039 4.65351 3.50705
5 2 5.16492 4.77671 4.53976
2 1 5.2394 3.81546 5.02566
3 1 4.3779 5.34865 5.06099
4 1 6.11427 5.31451 4.57293
ITEM: TIMESTEP
2100
ITEM: NUMBER OF ATOMS
5
ITEM: BOX BOUNDS xy xz yz pp pp pp
0.0000000000000000e+00 1.0289339721999999e+01 3.6749877000000000e-02
-5.6322168999999998e-02 1.0263123642000000e+01 1.3833062300000001e-01
0.0000000000000000e+00 1.0216793284000000e+01 -5.6322168999999998e-02
ITEM: ATOMS id type x y z
1 1 5.05936 4.65789 3.46524
5 2 5.16327 4.77754 4.54042
2 1 4.68903 3.91735 5.02728
3 1 4.63675 5.67173 4.83434
4 1 6.20667 4.87517 4.83183
ITEM: TIMESTEP
2200
ITEM: NUMBER OF ATOMS
5
ITEM: BOX BOUNDS xy xz yz pp pp pp
0.0000000000000000e+00 1.0289339721999999e+01 3.6749877000000000e-02
-5.6322168999999998e-02 1.0263123642000000e+01 1.3833062300000001e-01
0.0000000000000000e+00 1.0216793284000000e+01 -5.6322168999999998e-02
ITEM: ATOMS id type x y z
1 1 5.32998 4.56188 3.48417
5 2 5.16052 4.77422 4.54125
2 1 4.22255 4.34254 4.876
3 1 5.08013 5.85739 4.66504
4 1 5.99209 4.40017 5.12348
ITEM: TIMESTEP
2300
ITEM: NUMBER OF ATOMS
5
ITEM: BOX BOUNDS xy xz yz pp pp pp
0.0000000000000000e+00 1.0289339721999999e+01 3.6749877000000000e-02
-5.6322168999999998e-02 1.0263123642000000e+01 1.3833062300000001e-01
0.0000000000000000e+00 1.0216793284000000e+01 -5.6322168999999998e-02
ITEM: ATOMS id type x y z
1 1 5.47264 4.33263 3.59643
5 2 5.15681 4.77459 4.53952
2 1 4.08548 4.96276 4.51454
3 1 5.68548 5.72913 4.66568
4 1 5.42566 4.13298 5.39282
ITEM: TIMESTEP
2400
ITEM: NUMBER OF ATOMS
5
ITEM: BOX BOUNDS xy xz yz pp pp pp
0.0000000000000000e+00 1.0289339721999999e+01 3.6749877000000000e-02
-5.6322168999999998e-02 1.0263123642000000e+01 1.3833062300000001e-01
0.0000000000000000e+00 1.0216793284000000e+01 -5.6322168999999998e-02
ITEM: ATOMS id type x y z
1 1 5.4291 4.02985 3.77343
5 2 5.15508 4.77694 4.53889
2 1 4.4733 5.55427 4.13611
3 1 6.06046 5.28783 4.86604
4 1 4.72718 4.25745 5.40142
ITEM: TIMESTEP
2500
ITEM: NUMBER OF ATOMS
5
ITEM: BOX BOUNDS xy xz yz pp pp pp
0.0000000000000000e+00 1.0289339721999999e+01 3.6749877000000000e-02
-5.6322168999999998e-02 1.0263123642000000e+01 1.3833062300000001e-01
0.0000000000000000e+00 1.0216793284000000e+01 -5.6322168999999998e-02
ITEM: ATOMS id type x y z
1 1 5.18124 3.87995 3.90662
5 2 5.15263 4.78033 4.53402
2 1 5.25158 5.68614 3.93583
3 1 6.0357 4.70115 5.222
4 1 4.25086 4.82139 5.17102
ITEM: TIMESTEP
2600
ITEM: NUMBER OF ATOMS
5
ITEM: BOX BOUNDS xy xz yz pp pp pp
0.0000000000000000e+00 1.0289339721999999e+01 3.6749877000000000e-02
-5.6322168999999998e-02 1.0263123642000000e+01 1.3833062300000001e-01
0.0000000000000000e+00 1.0216793284000000e+01 -5.6322168999999998e-02
ITEM: ATOMS id type x y z
1 1 4.80509 3.93589 3.91363
5 2 5.15699 4.78172 4.53503
2 1 6.02202 5.29735 4.05674
3 1 5.53154 4.38916 5.47836
4 1 4.30846 5.44957 4.77456
ITEM: TIMESTEP
2700
ITEM: NUMBER OF ATOMS
5
ITEM: BOX BOUNDS xy xz yz pp pp pp
0.0000000000000000e+00 1.0289339721999999e+01 3.6749877000000000e-02
-5.6322168999999998e-02 1.0263123642000000e+01 1.3833062300000001e-01
0.0000000000000000e+00 1.0216793284000000e+01 -5.6322168999999998e-02
ITEM: ATOMS id type x y z
1 1 4.59403 4.16972 3.82054
5 2 5.16156 4.78316 4.53259
2 1 6.23612 4.60607 4.44166
3 1 4.83804 4.42876 5.53975
4 1 4.94413 5.8502 4.45073
ITEM: TIMESTEP
2800
ITEM: NUMBER OF ATOMS
5
ITEM: BOX BOUNDS xy xz yz pp pp pp
0.0000000000000000e+00 1.0289339721999999e+01 3.6749877000000000e-02
-5.6322168999999998e-02 1.0263123642000000e+01 1.3833062300000001e-01
0.0000000000000000e+00 1.0216793284000000e+01 -5.6322168999999998e-02
ITEM: ATOMS id type x y z
1 1 4.6605 4.48024 3.61617
5 2 5.16298 4.77925 4.5372
2 1 5.82581 3.9694 4.86206
3 1 4.42616 4.91385 5.32575
4 1 5.68273 5.73814 4.39332
ITEM: TIMESTEP
2900
ITEM: NUMBER OF ATOMS
5
ITEM: BOX BOUNDS xy xz yz pp pp pp
0.0000000000000000e+00 1.0289339721999999e+01 3.6749877000000000e-02
-5.6322168999999998e-02 1.0263123642000000e+01 1.3833062300000001e-01
0.0000000000000000e+00 1.0216793284000000e+01 -5.6322168999999998e-02
ITEM: ATOMS id type x y z
1 1 4.9058 4.65254 3.48585
5 2 5.16404 4.77695 4.54044
2 1 5.06118 3.82957 5.07381
3 1 4.4478 5.48821 4.94451
4 1 6.16777 5.15887 4.65432
ITEM: TIMESTEP
3000
ITEM: NUMBER OF ATOMS
5
ITEM: BOX BOUNDS xy xz yz pp pp pp
0.0000000000000000e+00 1.0289339721999999e+01 3.6749877000000000e-02
-5.6322168999999998e-02 1.0263123642000000e+01 1.3833062300000001e-01
0.0000000000000000e+00 1.0216793284000000e+01 -5.6322168999999998e-02
ITEM: ATOMS id type x y z
2 1 4.32626 4.21508 4.93334
1 1 5.24201 4.56712 3.4864
5 2 5.16006 4.77451 4.54284
4 1 6.10425 4.5342 5.03017
3 1 4.95776 5.84215 4.67976
ITEM: TIMESTEP
3100
ITEM: NUMBER OF ATOMS
5
ITEM: BOX BOUNDS xy xz yz pp pp pp
0.0000000000000000e+00 1.0289339721999999e+01 3.6749877000000000e-02
-5.6322168999999998e-02 1.0263123642000000e+01 1.3833062300000001e-01
0.0000000000000000e+00 1.0216793284000000e+01 -5.6322168999999998e-02
ITEM: ATOMS id type x y z
2 1 4.06788 4.87773 4.59311
1 1 5.45293 4.35848 3.57731
5 2 5.15746 4.77659 4.54491
4 1 5.52982 4.14851 5.34921
3 1 5.6108 5.74881 4.58522
ITEM: TIMESTEP
3200
ITEM: NUMBER OF ATOMS
5
ITEM: BOX BOUNDS xy xz yz pp pp pp
0.0000000000000000e+00 1.0289339721999999e+01 3.6749877000000000e-02
-5.6322168999999998e-02 1.0263123642000000e+01 1.3833062300000001e-01
0.0000000000000000e+00 1.0216793284000000e+01 -5.6322168999999998e-02
ITEM: ATOMS id type x y z
2 1 4.41505 5.47465 4.15938
1 1 5.39948 4.08838 3.73742
5 2 5.15269 4.77723 4.54458
4 1 4.8275 4.21985 5.41862
3 1 6.07668 5.343 4.7934
ITEM: TIMESTEP
3300
ITEM: NUMBER OF ATOMS
5
ITEM: BOX BOUNDS xy xz yz pp pp pp
0.0000000000000000e+00 1.0289339721999999e+01 3.6749877000000000e-02
-5.6322168999999998e-02 1.0263123642000000e+01 1.3833062300000001e-01
0.0000000000000000e+00 1.0216793284000000e+01 -5.6322168999999998e-02
ITEM: ATOMS id type x y z
2 1 5.09679 5.70454 3.9392
1 1 5.19996 3.9066 3.87094
5 2 5.1549 4.7815 4.54331
4 1 4.29613 4.68041 5.23609
3 1 6.09936 4.78312 5.0778
ITEM: TIMESTEP
3400
ITEM: NUMBER OF ATOMS
5
ITEM: BOX BOUNDS xy xz yz pp pp pp
0.0000000000000000e+00 1.0289339721999999e+01 3.6749877000000000e-02
-5.6322168999999998e-02 1.0263123642000000e+01 1.3833062300000001e-01
0.0000000000000000e+00 1.0216793284000000e+01 -5.6322168999999998e-02
ITEM: ATOMS id type x y z
2 1 5.80269 5.45484 3.95072
1 1 4.9106 3.92671 3.88916
5 2 5.15419 4.78409 4.54144
4 1 4.24842 5.27656 4.89954
3 1 5.73897 4.38541 5.40704
ITEM: TIMESTEP
3500
ITEM: NUMBER OF ATOMS
5
ITEM: BOX BOUNDS xy xz yz pp pp pp
0.0000000000000000e+00 1.0289339721999999e+01 3.6749877000000000e-02
-5.6322168999999998e-02 1.0263123642000000e+01 1.3833062300000001e-01
0.0000000000000000e+00 1.0216793284000000e+01 -5.6322168999999998e-02
ITEM: ATOMS id type x y z
2 1 6.20405 4.93547 4.22185
1 1 4.66232 4.09247 3.83716
5 2 5.1599 4.78248 4.54058
4 1 4.58467 5.73546 4.57046
3 1 5.18121 4.2994 5.52726
ITEM: TIMESTEP
3600
ITEM: NUMBER OF ATOMS
5
ITEM: BOX BOUNDS xy xz yz pp pp pp
0.0000000000000000e+00 1.0289339721999999e+01 3.6749877000000000e-02
-5.6322168999999998e-02 1.0263123642000000e+01 1.3833062300000001e-01
0.0000000000000000e+00 1.0216793284000000e+01 -5.6322168999999998e-02
ITEM: ATOMS id type x y z
2 1 6.17912 4.35244 4.5503
1 1 4.60107 4.30873 3.7176
5 2 5.16161 4.78209 4.54053
4 1 5.1971 5.86764 4.41449
3 1 4.63443 4.53876 5.47492
ITEM: TIMESTEP
3700
ITEM: NUMBER OF ATOMS
5
ITEM: BOX BOUNDS xy xz yz pp pp pp
0.0000000000000000e+00 1.0289339721999999e+01 3.6749877000000000e-02
-5.6322168999999998e-02 1.0263123642000000e+01 1.3833062300000001e-01
0.0000000000000000e+00 1.0216793284000000e+01 -5.6322168999999998e-02
ITEM: ATOMS id type x y z
2 1 5.76696 3.93752 4.8763
1 1 4.70021 4.54714 3.58136
5 2 5.16376 4.77743 4.54046
4 1 5.74784 5.69194 4.41591
3 1 4.37082 4.94691 5.28458
ITEM: TIMESTEP
3800
ITEM: NUMBER OF ATOMS
5
ITEM: BOX BOUNDS xy xz yz pp pp pp
0.0000000000000000e+00 1.0289339721999999e+01 3.6749877000000000e-02
-5.6322168999999998e-02 1.0263123642000000e+01 1.3833062300000001e-01
0.0000000000000000e+00 1.0216793284000000e+01 -5.6322168999999998e-02
ITEM: ATOMS id type x y z
2 1 5.19055 3.80435 5.03312
1 1 4.88315 4.65201 3.4942
5 2 5.16181 4.77602 4.5421
4 1 6.12695 5.28242 4.62463
3 1 4.40859 5.40163 4.98662
ITEM: TIMESTEP
3900
ITEM: NUMBER OF ATOMS
5
ITEM: BOX BOUNDS xy xz yz pp pp pp
0.0000000000000000e+00 1.0289339721999999e+01 3.6749877000000000e-02
-5.6322168999999998e-02 1.0263123642000000e+01 1.3833062300000001e-01
0.0000000000000000e+00 1.0216793284000000e+01 -5.6322168999999998e-02
ITEM: ATOMS id type x y z
2 1 4.59022 3.98751 5.02331
1 1 5.15344 4.6481 3.46673
5 2 5.16204 4.77243 4.54204
4 1 6.18476 4.81502 4.86964
3 1 4.67808 5.7328 4.77961
ITEM: TIMESTEP
4000
ITEM: NUMBER OF ATOMS
5
ITEM: BOX BOUNDS xy xz yz pp pp pp
0.0000000000000000e+00 1.0289339721999999e+01 3.6749877000000000e-02
-5.6322168999999998e-02 1.0263123642000000e+01 1.3833062300000001e-01
0.0000000000000000e+00 1.0216793284000000e+01 -5.6322168999999998e-02
ITEM: ATOMS id type x y z
2 1 4.20036 4.36741 4.85338
1 1 5.34208 4.55171 3.48862
5 2 5.15787 4.77371 4.54222
3 1 5.14069 5.84926 4.61495
4 1 5.97341 4.39971 5.18012
ITEM: TIMESTEP
4100
ITEM: NUMBER OF ATOMS
5
ITEM: BOX BOUNDS xy xz yz pp pp pp
0.0000000000000000e+00 1.0289339721999999e+01 3.6749877000000000e-02
-5.6322168999999998e-02 1.0263123642000000e+01 1.3833062300000001e-01
0.0000000000000000e+00 1.0216793284000000e+01 -5.6322168999999998e-02
ITEM: ATOMS id type x y z
2 1 4.06381 4.88322 4.57079
1 1 5.4725 4.34203 3.58699
5 2 5.1567 4.77217 4.54246
3 1 5.58026 5.78827 4.62222
4 1 5.55401 4.17305 5.35423
ITEM: TIMESTEP
4200
ITEM: NUMBER OF ATOMS
5
ITEM: BOX BOUNDS xy xz yz pp pp pp
0.0000000000000000e+00 1.0289339721999999e+01 3.6749877000000000e-02
-5.6322168999999998e-02 1.0263123642000000e+01 1.3833062300000001e-01
0.0000000000000000e+00 1.0216793284000000e+01 -5.6322168999999998e-02
ITEM: ATOMS id type x y z
2 1 4.2339 5.31596 4.29383
1 1 5.4856 4.16043 3.69033
5 2 5.15431 4.77479 4.5401
3 1 5.96386 5.50357 4.71929
4 1 5.01588 4.17515 5.4591
ITEM: TIMESTEP
4300
ITEM: NUMBER OF ATOMS
5
ITEM: BOX BOUNDS xy xz yz pp pp pp
0.0000000000000000e+00 1.0289339721999999e+01 3.6749877000000000e-02
-5.6322168999999998e-02 1.0263123642000000e+01 1.3833062300000001e-01
0.0000000000000000e+00 1.0216793284000000e+01 -5.6322168999999998e-02
ITEM: ATOMS id type x y z
2 1 4.65948 5.62947 4.03701
1 1 5.3483 3.97038 3.80838
5 2 5.15547 4.77701 4.53967
3 1 6.11112 5.14482 4.93445
4 1 4.56651 4.38387 5.38789
ITEM: TIMESTEP
4400
ITEM: NUMBER OF ATOMS
5
ITEM: BOX BOUNDS xy xz yz pp pp pp
0.0000000000000000e+00 1.0289339721999999e+01 3.6749877000000000e-02
-5.6322168999999998e-02 1.0263123642000000e+01 1.3833062300000001e-01
0.0000000000000000e+00 1.0216793284000000e+01 -5.6322168999999998e-02
ITEM: ATOMS id type x y z
2 1 5.18844 5.69772 3.93242
1 1 5.16267 3.88246 3.9042
5 2 5.15513 4.77882 4.53708
3 1 6.06575 4.7383 5.17908
4 1 4.27261 4.78835 5.1831
ITEM: TIMESTEP
4500
ITEM: NUMBER OF ATOMS
5
ITEM: BOX BOUNDS xy xz yz pp pp pp
0.0000000000000000e+00 1.0289339721999999e+01 3.6749877000000000e-02
-5.6322168999999998e-02 1.0263123642000000e+01 1.3833062300000001e-01
0.0000000000000000e+00 1.0216793284000000e+01 -5.6322168999999998e-02
ITEM: ATOMS id type x y z
2 1 5.73887 5.49867 3.95137
1 1 4.91329 3.90573 3.91782
5 2 5.16046 4.77956 4.53778
3 1 5.74503 4.45849 5.39221
4 1 4.22829 5.23503 4.92896
ITEM: TIMESTEP
4600
ITEM: NUMBER OF ATOMS
5
ITEM: BOX BOUNDS xy xz yz pp pp pp
0.0000000000000000e+00 1.0289339721999999e+01 3.6749877000000000e-02
-5.6322168999999998e-02 1.0263123642000000e+01 1.3833062300000001e-01
0.0000000000000000e+00 1.0216793284000000e+01 -5.6322168999999998e-02
ITEM: ATOMS id type x y z
2 1 6.13055 5.10436 4.14752
1 1 4.69523 4.03377 3.89854
5 2 5.16115 4.78033 4.53614
3 1 5.2998 4.33172 5.53227
4 1 4.49164 5.61881 4.63172
ITEM: TIMESTEP
4700
ITEM: NUMBER OF ATOMS
5
ITEM: BOX BOUNDS xy xz yz pp pp pp
0.0000000000000000e+00 1.0289339721999999e+01 3.6749877000000000e-02
-5.6322168999999998e-02 1.0263123642000000e+01 1.3833062300000001e-01
0.0000000000000000e+00 1.0216793284000000e+01 -5.6322168999999998e-02
ITEM: ATOMS id type x y z
2 1 6.2149 4.54724 4.44683
1 1 4.59573 4.23868 3.78393
5 2 5.16458 4.77736 4.53866
3 1 4.7919 4.4857 5.51076
4 1 4.97353 5.85274 4.43828
ITEM: TIMESTEP
4800
ITEM: NUMBER OF ATOMS
5
ITEM: BOX BOUNDS xy xz yz pp pp pp
0.0000000000000000e+00 1.0289339721999999e+01 3.6749877000000000e-02
-5.6322168999999998e-02 1.0263123642000000e+01 1.3833062300000001e-01
0.0000000000000000e+00 1.0216793284000000e+01 -5.6322168999999998e-02
ITEM: ATOMS id type x y z
2 1 5.92005 4.04267 4.81652
1 1 4.6216 4.49473 3.63853
5 2 5.1656 4.77566 4.53926
3 1 4.43057 4.84856 5.33763
4 1 5.59161 5.75872 4.3799
ITEM: TIMESTEP
4900
ITEM: NUMBER OF ATOMS
5
ITEM: BOX BOUNDS xy xz yz pp pp pp
0.0000000000000000e+00 1.0289339721999999e+01 3.6749877000000000e-02
-5.6322168999999998e-02 1.0263123642000000e+01 1.3833062300000001e-01
0.0000000000000000e+00 1.0216793284000000e+01 -5.6322168999999998e-02
ITEM: ATOMS id type x y z
2 1 5.22511 3.80416 5.03897
1 1 4.84085 4.63552 3.51124
5 2 5.1652 4.77304 4.5408
3 1 4.40334 5.4046 5.02151
4 1 6.09935 5.3319 4.58241
ITEM: TIMESTEP
5000
ITEM: NUMBER OF ATOMS
5
ITEM: BOX BOUNDS xy xz yz pp pp pp
0.0000000000000000e+00 1.0289339721999999e+01 3.6749877000000000e-02
-5.6322168999999998e-02 1.0263123642000000e+01 1.3833062300000001e-01
0.0000000000000000e+00 1.0216793284000000e+01 -5.6322168999999998e-02
ITEM: ATOMS id type x y z
2 1 4.42575 4.10974 5.0113
1 1 5.20923 4.62957 3.44717
5 2 5.15968 4.77192 4.54336
4 1 6.1816 4.65766 4.95673
3 1 4.81829 5.79258 4.70815
